% Model:              Hemisphere_vessel_78mm_11mm.mph
% Version:            COMSOL 5.4.0.295
% Date:               Jan 4 2021, 15:59
% Dimension:          2
% Nodes:              10092
% Expressions:        2
% Description:        Electric field, r component, Electric field, z component
% Length unit:        m
% r                       z                        es.Er (V/m)              es.Ez (V/m)
5.767355919102517E-4      6.043501411764618E-4     0.4161789043488149       -55.76422223839662
0                         0                        -0.003159393466444638    -54.906224582541924
8.878212633586873E-4      5.052898252901088E-6     0.6242900807451417       -54.90213762172031
0                         8.86363636363637E-4      -8.716200121199336E-4    -56.178351484279716
0.0017755272837527258     2.0210933443467884E-5    1.2489385873643208       -54.88860111528923
0.0013389567606127085     7.925399434092357E-4     0.973852610887007        -56.01365324303077
6.568999355798626E-4      0.0013377942278565355    0.48922794079999815      -56.83752994501307
0                         0.001772727272727274     -1.0540457513978178E-4   -57.49849976190748
0.002255001007062694      7.479828086394323E-4     1.635601300939405        -55.89910186049506
0.00266300351464673       4.547215022735344E-5     1.873570811909319        -54.86615291865403
6.832180486343464E-4      0.002211035609546911     0.5282225602393863       -58.16181641456953
0                         0.002659090909090911     -3.101648486373657E-5    -58.86996094377124
0.003110396345830591      7.86435047334871E-4      2.256722549587612        -55.88422933480542
0.0035501351775716044     8.083329359220727E-5     2.4977358307517155       -54.83453391503223
7.005196109101734E-4      0.0030923132205657776    0.5628245196565871       -59.550446408642735
0                         0.0035454545454545482    5.042693319505057E-5     -60.29524043205543
0.003973140331082945      8.325036279109077E-4     2.8831483932711826       -55.857039723153406
0.0044368073364649315     1.262897977816203E-4     3.1212728184541603       -54.79390041280872
7.022033698222491E-4      0.003977256197672468     0.5865761566308526       -61.000129486717974
0                         0.004431818181818185     2.6336800800663696E-5    -61.777213614743864
0.004843553815197913      8.830420075377515E-4     3.5143383465788425       -55.812289135119606
0.0053229049723922004     1.8183577946031775E-4    3.744061677697275        -54.744264080131096
7.096057042232947E-4      0.004866096872804942     0.6166916787871676       -62.51436940230508
0                         0.005318181818181822     -2.4070823959239838E-6   -63.318899865603235
0.005715546183608131      9.418251853911581E-4     4.146032431484943        -55.755832858267716
0.006208313058443858      2.4746403513030456E-4    4.365964135756379        -54.68562588391688
7.151674090090046E-4      0.005756425527650276     0.6469969979798217       -64.09289456991691
0                         0.006204545454545459     -3.1186623469163045E-5   -64.9234729867564
0.006589382688252178      0.001010852022899322     4.778608298335745        -55.690310885615894
0.007092916634604007      3.23166042799107E-4      4.986830758913779        -54.617980545480926
7.180967223480856E-4      0.006645319498003701     0.6765644011857006       -65.73387112263599
0                         0.007090909090909096     -5.056504320085272E-5    -66.59433549654038
0.007463931782125299      0.0010903621965964508    5.411250235628331        -55.61610885476879
0.007976600882387835      4.0893196789278894E-4    5.606517322881065        -54.54133717168147
7.192554581920662E-4      0.007533089736650448     0.7060596863662548       -67.44110370982602
0                         0.007977272727272732     -6.39909109168002E-5     -68.33511956482198
0.008338239561564013      0.0011803051311156647    6.043233703200504        -55.53326354500586
0.008859251199044679      5.04750673397886E-4      6.224878222725235        -54.45570856662969
7.195527855673722E-4      0.00842014284404511      0.7363154061213114       -69.21890030881025
0                         0.008863636363636369     -7.395626300876756E-5    -70.14969957968022
0.00921193703191805       0.0012804510191582168    6.674198607936361        -55.44148523397404
0.009740753271126272      6.106097342081212E-4     6.841766850759616        -54.36110830969176
7.195612386253014E-4      0.009306813615937961     0.7679524255727207       -71.07178795817782
0                         0.009750000000000003     -8.122485437903985E-5    -72.04220982043402
0.01008469478791849       0.0013905343510413899    7.303781659563821        -55.34045702982184
0.010620993147220682      7.264954556434573E-4     7.457036717433637        -54.25755110796076
7.195608944450081E-4      0.010193181057201786     0.801360006578534        -73.00410387768368
0                         0.01063636363636364      -8.685895124926901E-5    -74.01706467220647
0.010956163983110575      0.0015103821136590243    7.931615587699112        -55.23003031296144
0.011499857258073846      8.523928884121106E-4     8.070540932794271        -54.14505225759979
7.1956082560895E-4        0.01107954545454546      0.8366821975185038       -75.02102067933627
0                         0.011522727272727275     -9.296402680547544E-5    -76.07898283806162
0.011826120210738119      0.0016399768969010185    8.557461329211435        -55.110260141263275
0.012377231155010915      9.88285638252234E-4      8.682130711966714        -54.02362749136535
7.195608256089504E-4      0.011965909090909096     0.874052058441445        -77.12741974051052
0                         0.012409090909090911     -9.956453845916258E-5    -78.23301201880831
0.01269449102783021       0.001779449907752203     9.181239944242925        -54.98136253603
0.01325300130748887       0.0011341561137607865    9.291656638824032        -53.89329315199888
7.195608256089508E-4      0.012852272727272731     0.9136139139505227       -79.32852003088685
0                         0.013295454545454546     -1.0671783055234603E-4   -80.4845562638041
0.013561243273425866      0.0019289253465858338    9.802909116410225        -54.843521236768645
0.014127054711631956      0.0012899854961911951    9.898969030925102        -53.754067186556206
7.195608256089507E-4      0.013738636363636368     0.9555243114738611       -81.629909268222
0                         0.014181818181818183     -1.1447703805818794E-4   -82.83940566886265
0.014426306647199095      0.002088411169968273     10.42236399679965        -54.69676792408995
0.01499927831987217       0.0014557536461229986    10.503917991372516       -53.605969638542575
7.195608256089506E-4      0.014624999999999999     0.9999529837705458       -84.03757656448666
0                         0.015068181818181817     -1.2290119222294985E-4   -85.30376888973176
0.015289560439516667      0.00225782033806169      11.039425625170475       -54.54102746890104
0.015869559116165433      0.0016314391031326916    11.106353485335054       -53.44902247315347
7.195608256089498E-4      0.015511363636363636     1.0470841223156715       -86.55794642601109
0                         0.015954545454545454     -1.320560966936076E-4    -87.8843088102122
0.016150827577698423      0.0024369819496290654    11.653833631546439       -54.37614736471704
0.016737784190973947      0.0018170190897180598    11.706125313621781       -53.28324924172475
7.195608256089479E-4      0.016397727272727276     1.097117798059666        -89.19791605830964
0                         0.01684090909090909      -1.4201502847299707E-4   -90.58818171408113
0.01700993082532227       0.002625784388330632     12.265345657711274       -54.202070386180225
0.017603840815810533      0.0020124695194560028    12.30308247068364        -53.10867451076933
7.195608256089485E-4      0.017284090909090912     1.150271543455555        -91.96489636343172
0                         0.017727272727272723     -1.5285957135802164E-4   -93.42308036039988
0.017866790693137454      0.0028242784735447463    12.873857476236912       -54.01891369159767
0.018467616517143688      0.002217765009365674     12.897072737072373       -52.92532369541964
7.195608256089485E-4      0.01817045454545454      1.2067821137965211       -94.86685704722807
0                         0.01861363636363636      -1.6468071271447116E-4   -96.39728140490585
0.01872135170088698       0.0030325208549882503    13.479287759807931       -53.826784784327664
0.01932899914946256       0.0024328788964401815    13.48794335313145        -52.73322377625436
7.195608256089487E-4      0.019056818181818175     1.2669074497043578       -97.91237630332323
0                         0.019499999999999997     -1.7758006291993902E-4   -99.5196976646727
0.019573516918083612      0.003250504111867213     14.081500129726228       -53.625726867418706
0.02018787696730392       0.002657783258301992     14.0755413867941         -52.53240357379991
7.195608256089489E-4      0.01994318181818181      1.3309288672363095       -101.1106956002385
0                         0.02038636363636363      -1.916712748197824E-4    -102.79993578786654
7.195608256089487E-4      0.020829545454545448     1.3991535055808224       -104.47178016783646
0                         0.021272727272727266     -2.070816146897414E-4    -106.24835996446609
0.020423142450933084      0.003478149231085637     14.680291053953354       -53.41572225765239
0.021044138696045652      0.0028924489379290584    14.659713737608312       -52.32289374724618
7.1956082560895E-4        0.021715909090909088     1.4719170664482135       -108.00638585766869
0                         0.022159090909090903     -2.2395383408972216E-4   -109.87616239813201
0.02127008408621704       0.003715352877159819     15.275439035870884       -53.19673295774092
0.021897673601273843      0.0031368455723907226    15.240306891345865       -52.104726375979176
7.195608256089505E-4      0.02260227272727272      1.5495868842081109       -111.72613314169205
0                         0.02304545454545454      -2.424482690912555E-4    -113.69544135601411
0.02211422079207034       0.0039621022148082505    15.866787891469977       -52.968828133633345
0.022748371556533722      0.003390941625524537     15.817166489277119       -51.877934670857854
7.195608256089504E-4      0.023488636363636354     1.6325653717226867       -115.64358911693505
0                         0.023931818181818172     -2.627452709778784E-4    -117.71928772399383
0.022955474261492737      0.004218464242507595     16.454257699570334       -52.73214794217219
0.023596122372664067      0.003654704190686938     16.390136846478846       -51.642553308516334
7.195608256089485E-4      0.02437499999999999      1.7212938934450979       -119.7723585019412
0                         0.02481818181818181      -2.850480206385934E-4    -121.96188112277498
7.195608256089485E-4      0.025261363636363627     1.8162571255084383       -124.12718474772699
0                         0.025704545454545445     -3.095858013087612E-4    -126.43859678724266
0.02379378227873014       0.004484534872945998     17.037802552587692       -52.486849740821135
0.02444081560672939       0.003928098900609733     16.95906103288186        -51.39861899781553
7.195608256089502E-4      0.026147727272727267     1.9179879715187553       -128.7240625431958
0                         0.02659090909090908      -3.366177191613436E-4    -131.16612458173736
7.195608256089507E-4      0.0270340909090909       2.0270731138197484       -133.5803631774339
0                         0.027477272727272715     -3.6643711594782263E-4   -136.16260172069042
0.02462908252297467       0.00476032056883656      17.617321411966827       -52.232976441905606
0.025282342407701115      0.004211090519104718     17.5237826660141         -51.14617044300227
7.195608256089507E-4      0.027920454545454537     2.144159292569763        -138.7149744322262
0                         0.02836363636363635      -3.99376642462812E-4     -141.4477609925501
7.195608256089507E-4      0.028806818181818173     2.2699604200347494       -144.1484569232357
0                         0.029249999999999988     -4.358141743523447E-4    -147.04309655012776
0.02546125254709374       0.0050456253827288       18.19254000898779        -51.97037771929527
0.026120594080442282      0.004503642506007391     18.08414543790167        -50.88524845700088
7.195608256089503E-4      0.02969318181818181      2.405265655101857        -149.9032190933814
0                         0.03013636363636362      -4.7617976042602095E-4   -152.97204963963122
7.195608256089502E-4      0.030579545454545443     2.550948583928706        -156.00371339391435
0                         0.031022727272727257     -5.209637011679055E-4    -159.26021700119568
0.026290068873725588      0.005340270890687562     18.763142136272993       -51.69901504268324
0.026955462115190638      0.004805717011801243     18.639992182260023       -50.61589518701902
7.195608256089502E-4      0.03146590909090907      2.7079776772178548       -162.47665657697652
0                         0.031909090909090894     -5.707260762998582E-4    -165.9355850954471
7.195608256089502E-4      0.03235227272727271      2.8774282241045057       -169.35127747741612
0                         0.03279545454545453      -6.261079367201697E-4    -173.02879380490472
0.027115327894079055      0.005644278595657098     19.32896983902369        -51.41908091411985
0.02778683826169095       0.0051172748902826234    19.1911639062334         -50.338154564957414
7.1956082560895E-4        0.033238636363636345     3.0604959774059353       -176.6595961945733
0                         0.03368181818181817      -6.878444510221016E-4    -180.57343383929128
7.195608256089491E-4      0.03412499999999998      3.2585127865508334       -184.4367392111391
0                         0.0345681818181818       -7.567805002205811E-4    -188.60638275776805
0.027936995637950466      0.005957648925385729     19.889926017442253       -51.130618297157916
0.02861461460237297       0.005438275715376889     19.737500650760413       -50.052072908302954
7.195608256089486E-4      0.03501136363636362      3.4729645445171022       -192.72129572467892
0                         0.03545454545454543      -8.338891442084181E-4    -197.16818532743687
7.195608256089491E-4      0.035897727272727255     3.705511834508646        -201.55572133992678
0                         0.03634090909090907      -9.202934948007169E-4    -206.30348489211187
0.028755055906734352      0.006280226084241096     20.44579242172708        -50.83348359867683
0.02943868362437878       0.0057686778020522985    20.27884232755069        -49.757698454113324
7.195608256089495E-4      0.03678409090909089      3.9580137340873685       -210.9867963031053
0                         0.037227272727272706     -0.0010172928205065546   -216.06151355743108
0.029569387494300516      0.0066119459595892415    20.99637403590864        -50.52772201472353
0.030258938290244716      0.006108438231269714     20.815027742647516       -49.45508087098465
7.195608256089491E-4      0.03767045454545453      4.232555320946555        -221.06614668688053
0                         0.03811363636363634      -0.0011263936935392849   -226.4966503448674
7.195608256089481E-4      0.03855681818181816      4.531479529245871        -231.85083839535037
0                         0.03899999999999998      -0.001249347285465774    -237.66905807252957
0.030379910408694602      0.006952941744608261     21.5416532425827         -50.213553075228525
0.031075272107047407      0.006457512878898589     21.34589413835074        -49.144271308742994
7.195608256089466E-4      0.039443181818181794     4.857424132100808        -243.40405560307605
0                         0.03988636363636361      -0.0013881941584562203   -249.64541164105867
7.195608256089454E-4      0.040329545454545423     5.2133647807343095       -255.79587733034927
0                         0.04077272727272724      -0.001545318167397151    -262.4997327048577
0.03118653330666586       0.0073032707108715705    22.081555201622383       -49.89111605473688
0.03188757919382587       0.006815856448521605     21.87127840272159        -48.825323417808136
7.195608256089443E-4      0.04121590909090905      5.602665218757768        -269.1041683648221
0                         0.04165909090909086      -0.0017235116980979608   -276.3143484785708
7.195608256089439E-4      0.04210227272727268      6.029136021015802        -283.4156037592973
0                         0.04254545454545449      -0.0019260545673205343   -291.18099576948526
0.031989133680331905      0.007662822314804317     22.615857006361395       -49.56040693160028
0.03269575434709581       0.0071834225080428995    22.391017391342928       -48.49829364868788
7.19560825608944E-4       0.04298863636363631      6.497103489877493        -298.82684978429444
0                         0.04343181818181812      -0.002156810195477495    -307.20209537049897
7.195608256089439E-4      0.04387499999999994      7.011490691168092        -315.4459286352073
0                         0.04431818181818174      -0.0024203426608740606   -324.4922268570314
7.195608256089441E-4      0.044761363636363564     7.577913043965661        -333.3937995698977
0                         0.04520454545454537      -0.0027220602927021296   -343.1798398130571
0.032787631807306226      0.008031444946022164     23.144307130665215       -49.221355944816445
0.033499693104276         0.007560163530007238     22.904947331349405       -48.16324044310672
7.195608256089441E-4      0.04564772727272718      8.202791415480988        -352.80619571171854
0                         0.046090909090908995     -0.003068391987350575    -363.40924482261926
0.03358195470290623       0.008409098239958059     23.66674592379212        -48.87400306576117
0.03429929180485143       0.007946030935530486     23.412903302693934       -47.8202236169682
7.195608256089441E-4      0.04653409090909081      8.893486340437144        -373.8357637828828
0                         0.046977272727272625     -0.0034670047816689475   -385.34293653406985
7.19560825608944E-4       0.04742045454545444      9.658457821683593        -396.65456390079
0                         0.047863636363636254     -0.003927073194669599    -409.1643121506507
0.03437197483712034       0.008795824129923824     24.18307491951181        -48.51851350578837
0.035094446789565345      0.008340974708697178     23.91471888295989        -47.46930531558607
7.19560825608944E-4       0.04830681818181806      10.507456219296879       -421.45699873942414
0                         0.04874999999999988      -0.004459614201247557    -435.0808623563871
7.195608256089435E-4      0.049193181818181685     11.451751062127792       -448.4632564274537
0                         0.049636363636363506     -0.005077905394803868    -463.32792863345395
0.035157572937060365      0.009191623558806525     24.69316694893749        -48.15500503083437
0.0358850544508387        0.008744943382736728     24.410226636347186       -47.110550581258934
7.195608256089417E-4      0.05007954545454532      12.50440629527111        -477.9233702875733
0                         0.050522727272727136     -0.005798009369755164    -494.1731420459085
7.195608256089328E-4      0.050965909090908985     13.680612615680124       -510.12202190669603
0                         0.05140909090909076      -0.006639434280259593    -527.9216849951566
0.03593864676841759       0.009596403996911286     25.196814631672012       -47.78349920865144
0.03667101295187303       0.009157884917126782     24.899259496046465       -46.744026270173094
7.19560825608891E-4       0.05185227272727281      14.998090281547169       -545.384243347217
0                         0.05229545454545439      -0.0076259695630748565   -564.9225506754707
0.036714998051346634      0.010009995590292748     25.693722643875827       -47.40405227075971
0.037452220792815585      0.009579745998087733     25.3816496424474         -46.369801378507965
7.195608256087008E-4      0.052738636363637244     16.47757929400935        -584.0822112310904
0                         0.05318181818181801      -0.008786748607841824    -605.5760169102487
7.195608256078504E-4      0.0536250000000044       18.143438383685254       -626.6433721461696
0                         0.05406818181818164      -0.01015760689885307     -650.3426042787329
0.037486372627174594      0.010432383734950245     26.183742218338868       -47.01691933786848
0.038228576856888276      0.010010472045343733     25.857227316210025       -45.98794802273957
7.195608256041185E-4      0.054511363636383        20.02438012068539        -673.5601982091245
0                         0.05495454545454527      -0.01178282639951552     -699.7538563072309
7.195608255880871E-4      0.05539772727280881      22.15437714351477        -725.4019474973189
0                         0.05584090909090889      -0.013717388084235912    -754.4253664717817
0.03825281337196228       0.010863669729648475     26.666877950550795       -46.62216479222425
0.03899998048176439       0.010450007235958963     26.325821388091295       -45.59854125958885
7.195608255208237E-4      0.05628409090942521      24.573784575656948       -782.828901502529
0                         0.05672727272727252      -0.01602989787503854     -815.0725888021685
7.195608252459734E-4      0.05717045454679106      27.330736987088738       -846.6096775791151
0                         0.057613636363636145     -0.018806408656018903    -882.5301140221127
0.03901434032739669       0.011303550527890442     27.142731579917534       -46.21955378714561
0.039766331529363444      0.010898294532130152     26.787261655141915       -45.20165944597011
7.195608241560114E-4      0.058056818187017606     30.482895891871824       -917.6423777454098
0                         0.058499999999999774     -0.022155446492130675    -957.775282253795
7.195608199789937E-4      0.05894318183779574      34.099647309198495       -996.9805486868026
0                         0.059386363636363404     -0.02621466850359866     -1041.957251134433
0.039770888931967695      0.011751795514259332     27.610951616494052       -45.809013752589664
0.04052753045387879       0.011355275712852352     27.24137659220463        -44.79738286544663
7.195608045922442E-4      0.05982954552597386      38.26488049320475        -1085.8652087328253
0                         0.06027272727272703      -0.031159771327414394    -1136.4329649787262
7.195607504764598E-4      0.060715909340657105     43.08052147706803        -1185.764570463259
0                         0.061159090909090656     -0.03721658876444659     -1242.8119042696137
0.04052236407260166       0.012208422455639347     28.071423198373918       -45.39069662801882
0.041283478367855675      0.011820891409367021     27.687992560834005       -44.38579366821991
7.195605703338311E-4      0.06160227356008957      48.67105248288741        -1298.4235881764755
0                         0.062045454545454286     -0.04467793876877598     -1363.0120739409092
7.195600092595973E-4      0.06248863899046362      55.189325759318          -1425.9261410925137
0                         0.06293181818181791      -0.05392804461250004     -1499.3304675547963
0.04126865483598023       0.012673577800195656     28.524163054409442       -44.96485123428846
0.04203407710614184       0.01229508114429391      28.126934441409897       -43.96697635791882
7.195583997774748E-4      0.06337500775735765      62.824085988219245       -1570.7736031325446
0                         0.06381818181818154      -0.06547976958912234     -1654.532298354603
7.1955424299307E-4        0.06426138481404255      71.80976603030588        -1735.9848387205614
0                         0.06470454545454517      -0.08003328398384231     -1831.9647252616112
0.042009610440479156      0.013147385627192823     28.969176020039956       -44.5317338276022
0.042779229287536906      0.012777783374341347     28.558026532315555       -43.54101849108565
7.195449156663269E-4      0.06514777987576494      82.43936340474556        -1925.2243270264055
0                         0.06559090909090878      -0.09856462329359299     -2035.7027799775813
0.04274507895529153       0.013629762877843087     29.40626881013802        -44.091460894392505
0.04351883837397187       0.013268935536482078     28.98109333097791        -43.10801126665373
7.195279134231699E-4      0.06603420742577033      95.08165472900721        -2142.9669282615773
0                         0.06647727272727241      -0.12243542663539604     -2270.7379512561442
0.04347497214750479       0.014120577620881468     29.835196880047206       -43.64406454868322
0.044252808727055025      0.013768474097475452     29.39595875927363        -42.668049461870595
7.195072648890187E-4      0.06692067921529943      110.20489079634838       -2394.7093529310782
0                         0.06736363636363604      -0.15350403473469973     -2543.223731775881
7.195127291635081E-4      0.0678071899387327       128.41114608646726       -2687.242439605196
0                         0.06824999999999967      -0.19438972170610214     -2860.7978627381963
0.04419934903661923       0.01461977400500153      30.255770865657794       -43.18948077113049
0.044981045661825356      0.014276334606609598     29.802445596280347       -42.221230299108434
7.196409584838328E-4      0.0686937269353491       150.4905450071286        -3029.014743563834
0                         0.0691363636363633       -0.24857192367441408     -3233.0084329757083
7.200020045896389E-4      0.06958029109833251      177.48122622711585       -3430.6217584708793
0                         0.07002272727272693      -0.3228016248273586      -3671.8822264459764
0.04491816662808096       0.01512733131466537      30.667837144188436       -42.72776867471709
0.04570345518664667       0.014792451526718906     30.200375992300554       -41.76765324625715
7.207086534003777E-4      0.07046712700869308      210.7604676521017        -3905.5954480754976
0                         0.07090909090909055      -0.4301413092944131      -4192.690024623381
7.221056731069837E-4      0.07135436930185625      252.25149484490916       -4471.148212336596
0                         0.07179545454545418      -0.5971802332654382      -4814.982558858486
0.04563116923063993       0.01564280418662808      31.070840771901086       -42.258995589658475
0.04641994286416583       0.015316757386941288     30.58957211861025        -41.30742211516776
7.245420334390317E-4      0.07224288942007628      304.6308469995444        -5150.043507967002
0                         0.0726818181818178       -0.9189916590924744      -5563.9983037289685
0.046338123106973744      0.016166273370792586     31.464776614739808       -41.783500872015225
0.04713041628965222       0.015849184555920073     30.96985341859383        -40.84064212891431
7.285178131876623E-4      0.07313565407882335      371.858165606652         -5974.274777643248
0                         0.07356818181818144      -1.6467568730113271      -6472.670017794614
7.333812161183178E-4      0.07403640906821288      458.7392445851692        -6989.870275996872
0                         0.07445454545454507      -2.006380446672362       -7584.4274136165695
0.047038813789569346      0.016697795521181637     31.849628426086156       -41.3015807844311
0.04783478380700866       0.016389664356240178     31.34103871582808        -40.36742268415688
7.336058882263042E-4      0.07490825195537194      565.6648325268616        -8197.10726986102
0                         0.07534090909090868      -0.15250636854519448     -8955.895297701121
7.21039897570675E-4       0.07574207468705396      684.4667188485897        -9615.317956204026
0                         0.07622727272727231      -1.5880111065489473      -10666.304377558588
0.04773320314641347       0.01723728793551136      32.225204646183776       -40.813284590935275
0.048532954316387635      0.016938126909474598     31.70294682921798        -39.88787796691566
7.992964066008432E-4      0.07664576298707061      956.9194396534056        -11513.016113745392
0                         0.07711363636363594      11.973789297958623       -12815.562262542546
6.096573431656418E-4      0.07742552994942864      902.2633412161965        -13630.295359980973
0                         0.078                    -3.0904921749970526      -15550.522850728525
0.0484214370977528        0.01778455826258658      32.59114022459554        -40.31843755286785
0.04922483734160845       0.017494501169792922     32.055396344889054       -39.40212597855208
8.86363636363637E-4       0.07800000000000001      1531.6518112451606       -15364.104785589368
0.049103604928553035      0.01833953194677367      32.94718305108538        -39.81698275704887
0.04991034309544024       0.018058714961260297     32.39820437826608        -38.910287188877334
0.0013626266728637292     0.07736825039643669      1952.526518625645        -13170.3249341825
0.001772727272727274      0.078                    2978.1061444480097       -14795.36416814552
0.04977957796333332       0.018902200921170922     33.29320721664933        -39.30911328211757
0.05058938254257963       0.018630695018717464     32.73118679008422        -38.41248488940536
0.002193258509296424      0.0772960856118773       2982.607299870601        -12417.23923923377
0.002659090909090911      0.078                    4267.039798173263        -13901.661945764508
0.0504491172946582        0.019472524042679136     33.62910059353473        -38.79512290164207
0.05126186746015615       0.019210367032125614     33.05415881673475        -37.90884649921606