% Model:              medium_zylinder_1000V.mph
% Version:            COMSOL 5.4.0.295
% Date:               Jan 19 2021, 18:06
% Dimension:          2
% Nodes:              5718
% Expressions:        2
% Description:        Electric field, r component, Electric field, z component
% Length unit:        m
% r                       z                        es.Er (V/m)              es.Ez (V/m)
0.0013056107469279266     0.001358285458751715     0.0019409015849751743    -2.452884292604014
0                         0.0019981159471670904    -1.502466648341342E-4    -2.4561439840996475
0                         0                        -5.66815023609557E-4     -2.451697002599766
0.0020000000000003843     0                        -2.9505795652973177E-5   -2.449479989508104
0.0014910978021367798     0.003013638309450079     0.005023084591696314     -2.4605951516092635
0                         0.003996231894334181     -9.967995136047255E-6    -2.4695737336668193
0.004000000000000377      0                        -6.279486966217125E-5    -2.442772068255963
0.0030369559325024676     0.0017796730371414063    0.006017631938206972     -2.4499938207248997
0.0015581547033089074     0.004975451582914651     0.008683101649698507     -2.477974991599312
0                         0.005994347841501271     2.9431759413315697E-6    -2.492003403870304
0.005113258233448269      0.0016058935598628574    0.00914053858926885      -2.4400273669522616
0.0060000000000003705     0                        -3.601408218697107E-5    -2.431662355820853
0.0016052974367311485     0.006969804493789044     0.012602537981976155     -2.5046588971147616
0                         0.007992463788668362     1.1991072752811268E-5    -2.5235027870062074
0.00705594977143428       0.0016211011825532416    0.012705367019820502     -2.4268934172039085
0.008000000000000364      0                        -2.1167969494288268E-5   -2.4161008586094628
0.0016041754239023577     0.008976857741751889     0.016303860187481572     -2.5407866206405263
0                         0.009990579735835451     5.548624087007663E-6     -2.564200025997651
0.009032206246212104      0.0016304507787079316    0.016305153803231203     -2.409267471879756
0.010000000000000358      0                        -1.611438202978969E-5    -2.3961681348147255
0.0016076954438107415     0.010978567819826422     0.020106929695201597     -2.58612789720326
0                         0.01198869568300254      3.128313543913445E-6     -2.614254664570647
0.011022834673033081      0.0016295679770578625    0.019799118148678036     -2.3871861890502433
0.01200000000000035       0                        -1.3080458341215481E-5   -2.3719239323311183
0.0016114065481667983     0.012978228809338504     0.024001995735367803     -2.64087889750273
0                         0.01398681163016963      2.940464482274289E-7     -2.6738559602051666
0.013014854812040413      0.0016244073162354853    0.02317399369618393      -2.3608266048219346
0.014000000000000344      0                        -9.942488888192713E-6    -2.3434358936748763
0.001614250411464546      0.014981374910174254     0.028000538357773348     -2.705415846257239
0                         0.01598492757733672      -3.004638969035985E-6    -2.7432312565244046
0.015007483282923692      0.001621008726013714     0.026492163106744997     -2.3302854962503843
0.016000000000000337      0                        -7.4802604379531346E-6   -2.3107823449994225
0.0016166740466420247     0.016981594413205143     0.032105606818265166     -2.7797819524073564
0                         0.01798304352450381      -4.658526499075795E-6    -2.822644540975695
0.01700263444111067       0.0016198259994095676    0.02976604044363444      -2.295610334825479
0.01800000000000033       0                        -6.0761851596868865E-6   -2.2740550295748005
0.019000000000000326      0.0016194675050769016    0.032971395738002784     -2.2568838677319443
0.020000000000000323      0                        -5.484947106578393E-6    -2.2333579359062607
0.0016179627266583163     0.018980901429779266     0.03631864697974615      -2.8643074772658212
0                         0.0199811594716709       -5.9143291627113586E-6   -2.91239908058204
0.021000000000000324      0.0016194675050769023    0.03609492898663406      -2.2141916479764228
0.022000000000000318      0                        -5.368546817985376E-6    -2.188805149323861
0.023000000000000312      0.0016194675050769018    0.039117320182240754     -2.1677001771277804
0.02400000000000031       0                        -5.278487841782938E-6    -2.140521687256994
0.001618512491981257      0.020979661371967478     0.04065778019859264      -2.9593199530264322
0                         0.021979275418837988     -7.022124622816743E-6    -3.0128387060020394
0.0250000000000003        0.0016194675050769023    0.04203069114176113      -2.117539698032587
0.026000000000000304      0                        -5.2213205210538405E-6   -2.088642114740533
0.0016187826950957004     0.022978158215598163     0.04514764495640596      -3.0651901813161406
0                         0.02397739136600508      -7.998608820021976E-6    -3.1243491204328038
0.0270000000000003        0.0016194675050769018    0.044827299474935245     -2.0638498027595897
0.028000000000000295      0                        -5.187167952058758E-6    -2.033310543306986
0.029000000000000303      0.0016194675050769025    0.04749983829450163      -2.0067793831730083
0.03000000000000029       0                        -5.1693648333017705E-6   -1.9746801041699513
0.0016188795869307956     0.024976424062898392     0.0498070426886675       -3.1823227940255303
0                         0.02597550731317217      -8.888593718836546E-6    -3.247359689053513
0.0310000000000003        0.0016194675050769025    0.05004142863236982      -1.9464860991013875
0.032000000000000285      0                        -5.162817601730059E-6    -1.912912419486979
0.0330000000000003        0.0016194675050769023    0.05244563958014211      -1.8831358366239093
0.03400000000000028       0                        -5.163597591580545E-6    -1.8481770496350023
0.0016188964319115212     0.026974565286755722     0.054656406933337585     -3.3111724885799725
0                         0.02797362326033926      -9.774666548167943E-6    -3.3823455984441773
0.03500000000000028       0.0016194675050769025    0.054706504505764565     -1.8169021436977832
0.03600000000000027       0                        -5.168626894184551E-6    -1.7806509204174983
0.03700000000000026       0.0016194675050769023    0.056818534766882554     -1.7479656473552343
0.03800000000000026       0                        -5.175463420788636E-6    -1.7105177332791524
0.001618896431911521      0.028972681233922812     0.05971705817400519      -3.4522427678942953
0                         0.029971739207506353     -1.070384807041099E-5    -3.529830175770949
0.03900000000000026       0.0016194675050769018    0.05877673111342604      -1.6765134554576282
0.04000000000000026       0                        -5.182151999960638E-6    -1.6379673614040662
0.04100000000000025       0.0016194675050769023    0.06057659289450701      -1.602738545724401
0.04200000000000025       0                        -5.187117793440758E-6    -1.563195234428808
0.0016188964319115205     0.030970797181089905     0.06501010920664285      -3.6060830440954574
0                         0.031969855154673446     -1.1687400003050167E-5   -3.690387471425358
0.043000000000000246      0.0016194675050769014    0.062214125095902184     -1.5268391447420377
0.04400000000000023       0                        -5.189087934972155E-6    -1.4864017144473367
0.04500000000000023       0.0016194675050769007    0.0636858432692402       -1.4490180996119848
0.04600000000000022       0                        -5.187032698472649E-6    -1.407791465906296
0.001618896431911521      0.03296891312825699      0.07055726543559793      -3.7732932710278178
0                         0.03396797110184054      -1.2731058921152302E-5   -3.8646451519616107
0.047000000000000215      0.0016194675050769005    0.06498877645109687      -1.3694822447938
0.04800000000000021       0                        -5.180120595360549E-6    -1.3275728218702607
0.04900000000000021       0.0016194675050769007    0.06612046818885386      -1.2884417665602854
0.050000000000000204      0                        -5.167684591134147E-6    -1.2459571489929537
0.0016188964319115212     0.03496702907542408      0.07638152873793835      -3.954528513202829
0                         0.03596608704900763      -1.38413765569112E-5     -4.053287708587416
0.051000000000000205      0.001619467505076901     0.06707897574969475      -1.2061095674455107
0.05200000000000019       0                        -5.149193990675964E-6    -1.1631582133957954
0.05300000000000018       0.0016194675050769007    0.06786286767660636      -1.1227006329240192
0.05400000000000017       0                        -5.124232820138038E-6    -1.079391549547814
0.0016188964319115214     0.03696514502259117      0.0825073387270449       -4.15050232578938
0                         0.03796420299617472      -1.5025545219297479E-5   -4.257060010709021
0.05500000000000016       0.0016194675050769007    0.06847121999205498      -1.0384314018264413
0.05600000000000017       0                        -5.092513597186136E-6    -0.9948738341219595
0.0570000022256034        0.0016194664545824227    0.06890356569448021      -0.9535190471787026
0.05800000000000016       0                        -5.054311350819833E-6    -0.9098222665734288
0.0016188964319115214     0.038963260969758266     0.08896072840725111      -4.361990489902875
0                         0.03996231894334182      -1.6291508463458133E-5   -4.4767712442406635
0.05900003627394773       0.001619458205589411     0.06915971667621805      -0.8681797914049435
0.060000000000000143      0                        -5.015122115555511E-6    -0.8244539692509676
0.061000343526405924      0.0016192816114156284    0.06923333601376357      -0.7826202487642285
0.06200000000000013       0                        -4.971637494577408E-6    -0.7389854076312522
0.0016188964319115214     0.04096137691692536      0.09576949574641465      -4.5898351503522825
0                         0.04196043489050891      -1.7648066439335253E-5   -4.71329927415933
0.06300110859807707       0.0016184574575376423    0.06910493749162026      -0.6970483017039465
0.06400000000000011       0                        -4.89742257743971E-6     -0.6536317784806496
0.06500239610482794       0.0016163756239036943    0.06875028625018072      -0.6116757731703986
0.0660000000000001        0                        -4.747977210265801E-6    -0.5686063624404124
0.001618896431911521      0.04295949286409246      0.10296339345717698      -4.834949398383401
0                         0.043958550837676004     -1.9104994457563862E-5   -4.967595476330639
0.06700392461275655       0.001612926406403415     0.06816806098110396      -0.5267277433849756
0.06800000000000009       0                        -4.460550906896603E-6    -0.48411978446360165
0.0016188964319115216     0.044957608811259556     0.11057433952015572      -5.098322347333233
0                         0.045956666784843093     -2.067318287638879E-5    -5.240690089941514
0.06900695356750806       0.0016098795004097438    0.06743623193983868      -0.4423636382296725
0.07000000000000008       0                        -4.243576265605675E-6    -0.4003803130545458
0.07100624071646552       0.0016020921981987695    0.06634733493207733      -0.3590064492308797
0.07200000000000006       0                        -3.8004867995433678E-6   -0.3175915046057018
0.0016188964319115218     0.04695572475842665      0.11863665138465034      -5.3810247558406274
0                         0.04795478273201019      -2.236479647166334E-5    -5.533698149120146
0.07300945945753616       0.0015983575290408147    0.06526958208095265      -0.2765449353768841
0.07400000000000005       0                        -4.029061573161223E-6    -0.23595506296117807
0.07500025423631436       0.0015529752258184272    0.06236645821301706      -0.19582890439721948
0.07600000000000004       0                        -4.44547824128098E-6     -0.15566692472512775
0.001618896431911522      0.04895384070559374      0.12718730722486762      -5.684215261023098
0                         0.049952898679177286     -2.4193458912691312E-5   -5.847826060697234
0.0769793586699631        0.0014858121840780215    0.05854428022605617      -0.11701022704795956
0.07800000000000003       0                        -2.2139237114480553E-5   -0.07693096504973869
0.07864439277797405       0.0013034706931816318    0.050410116420086894     -0.05197248354968469
0.08                      0                        -1.080966713511225E-4    1.1242034755908371E-4
0.0016188964319115227     0.05095195665276083      0.1362662381486146       -6.009147292977296
0                         0.05195101462634438      -2.6174465721358804E-5   -6.184378904704403
0.08000000000000002       0.0019999999999951615    0.07610347972001326      1.0138288924849241E-4
0.0016188964319115238     0.05295007259992793      0.14591665585805794      -6.357176752291518
0                         0.05394913057351148      -2.8325030143605545E-5   -6.544768545343838
0.08000000000000002       0.003999999999995208     0.15256771565853053      1.1414182356285496E-4
0.07824260521990711       0.003031541281834977     0.11794191596406023      -0.06773518393218794
0.0016188964319115238     0.05494818854709504      0.1561854209633656       -6.729770544169114
0                         0.055947246520678576     -3.066457169135598E-5    -6.930522653043018
0.07837453381894403       0.005116067255013938     0.19923749288788103      -0.06308686652538388
0.08000000000000002       0.005999999999995254     0.22952550914117678      1.0962250849123427E-4
0.0016188964319115231     0.056946304494262134     0.16712345797814146      -7.128516076579255
0                         0.05794536246784568      -3.321504502196149E-5    -7.343294753131436
0.07837045425881106       0.0070412166615711124    0.27519359275362126      -0.06390078161371349
0.08000000000000002       0.0079999999999953       0.3073128918567255       1.0851195348142902E-4
0.0016188964319115223     0.05894442044142923      0.17878622399090224      -7.555131845850792
0                         0.059943478415012776     -3.600132916403709E-5    -7.784875434002075
0.07836955039052441       0.009015575068087246     0.3540208818949749       -0.06482853396008495
0.08000000000000002       0.009999999999995346     0.38619100898397374      1.0925093146237537E-4
0.0016188964319115227     0.06094253638859632      0.19123423915568813      -8.011479251726959
0                         0.06194159436217987      -3.905167866946613E-5    -8.257204867781107
0.0783734610840748        0.011015345682951322     0.43509321577080345      -0.06580173666781701
0.08000000000000002       0.011999999999995393     0.4664441251642449       1.1086462106951744E-4
0.0016188964319115236     0.06294065233576342      0.20453368848004297      -8.49957580556341
0                         0.06393971030934698      -4.2398250120830504E-5   -8.762386820004414
0.07837772364879873       0.013010140588810747     0.5174969735406764       -0.06698403747429672
0.08000000000000002       0.01399999999999544      0.5483574279800798       1.1237959540999487E-4
0.0016188964319115242     0.06493876828293052      0.21875710598765843      -9.021609920591308
0                         0.06593782625651406      -4.6077720786759833E-5   -9.302704352237754
0.07837975373047736       0.015004535386521523     0.6017228475851573       -0.06848983646143374
0.08000000000000002       0.015999999999995487     0.6322216464836531       1.1445675205904819E-4
0.0016188964319115266     0.06693688423009762      0.23398415420517202      -9.579957502704062
0                         0.06793594220368117      -5.0132012006542936E-5   -9.880637453648157
0.07838035857300502       0.017001346105400782     0.6881903105424928       -0.07029718478602977
0.08000000000000002       0.01799999999999553      0.7183339985891438       1.1727974618473229E-4
0.0016188964319115244     0.06893500017726473      0.25030251415890586      -10.177200594775778
0                         0.06993405815084827      -5.4609143229337555E-5   -10.498882875163597
0.0783805324949231        0.01899999999999555      0.777182567515724        -0.07237215922233126
0.08000000000000002       0.019999999999995577     0.8069989505173071       1.2078027844408812E-4
0.0016188964319115231     0.07093311612443182      0.2678089037161631       -10.81614836808078
0                         0.07193217409801536      -5.956423552788692E-5    -11.160376484029351
0.0783805324949231        0.020999999999995595     0.8689962939091501       -0.07471137131518503
0.08000000000000002       0.021999999999995624     0.8985296043396017       1.2485497291884565E-4
0.001618896431911523      0.07293123207159892      0.2866102452661015       -11.499860802074252
0                         0.07393029004518246      -6.506069727644596E-5    -11.86831850859908
0.0783805324949231        0.022999999999995645     0.963894892879957        -0.07731358101848389
0.08000000000000002       0.02399999999999567      0.9932481636183385       1.2936444112702597E-4
0.001618896431911523      0.07492934801876601      0.3068250075106012       -12.231675449983674
0                         0.07592840599234955      -7.117163139961728E-5    -12.626202104585682
0.0783805324949231        0.024999999999995692     1.0622120338404357       -0.08018733757935624
0.08000000000000002       0.025999999999995718     1.0914872790847214       1.3433011322609248E-4
0.0016188964319115234     0.0769274639659331       0.32858475066520043      -13.015237754056136
0                         0.07792652193951666      -7.798150034924826E-5    -13.4378457465891
0.0783805324949231        0.026999999999995743     1.1642925813391063       -0.0833419332404961
0.08000000000000002       0.027999999999995764     1.1935909870513446       1.3976798869334375E-4
0.0016188964319115242     0.0789255799131002       0.3520359097856082       -13.854535452867433
0                         0.07992463788668376      -8.558811035186409E-5    -14.307430034788041
0.0783805324949231        0.028999999999995786     1.270493543686942        -0.08678751525311879
0.08000000000000002       0.029999999999995808     1.2999157510064798       1.4569586824197955E-4
0.0016188964319115236     0.0809236958602673       0.37734185749368504      -14.753937716396067
0                         0.08192275383385085      -9.41049798276102E-5     -15.239539608984984
0.0783805324949231        0.030999999999995833     1.38118514177593         -0.09053508798195331
0.08000000000000002       0.03199999999999586      1.4108315113249805       1.5213301258828102E-4
0.0016188964319115236     0.0829218118074344       0.40468529527058195      -15.718239755522026
0                         0.08392086978101795      -1.0366417072305012E-4   -16.239210984082018
0.0783805324949231        0.03299999999999588      1.4967518886332158       -0.09459652594394881
0.08000000000000002       0.0339999999999959       1.5267227506006729       1.5910019211418103E-4
0.0016188964319115244     0.0849199277546015       0.43427103205325085      -16.752713785004932
0                         0.08591898572818504      -1.1441968618441933E-4   -17.311987266727936
0.07838053249492312       0.034999999999995916     1.6175936846487484       -0.09898458554548324
0.08000000000000002       0.035999999999995945     1.6479895732473626       1.6661971507196208E-4
0.0016188964319115247     0.08691804370176859      0.4663292205097207       -17.86316737738888
0                         0.08791710167535215      -1.2655155822471897E-4   -18.46398088738198
0.0783805324949231        0.03699999999999597      1.7441269268605046       -0.10371291547552912
0.08000000000000002       0.037999999999995995     1.7750487977080265       1.747154553444208E-4
0.0016188964319115266     0.08891615964893569      0.5011191355501884       -19.056010435271673
0                         0.08991521762251925      -1.402707878715622E-4    -19.701945691775393
0.07838053249492312       0.03899999999999602      1.8767856302353911       -0.10879606510000635
0.08000000000000002       0.03999999999999604      1.9083350587950012       1.8341287937924852E-4
0.0016188964319115242     0.0909142755961028       0.5389335969796937       -20.33833223801804
0                         0.09191333356968634      -1.558253151946095E-4    -21.03335998855357
0.0783805324949231        0.04099999999999606      2.016022558036082        -0.11424949004307021
0.08000000000000002       0.04199999999999609      2.0483019167178727       1.9273906396866103E-4
0.0016188964319115238     0.0929123915432699       0.5801041594973526       -21.717990294958742
0                         0.09391144951685344      -1.7350729165362586E-4   -22.46652245556341
0.07838053249492312       0.042999999999996104     2.162310357114768        -0.1200895541414458
0.08000000000000002       0.04399999999999613      2.1954229683541384       2.0272271299067354E-4
0.0016188964319115238     0.094910507490437        0.6250072194893951       -23.203713071260335
0                         0.09590956546402053      -1.9366192366495247E-4   -24.010663178133218
0.0783805324949231        0.04499999999999615      2.3161426932984384       -0.12633352700020686
0.08000000000000002       0.04599999999999618      2.3501929553217553       2.1339416862553584E-4
0.0016188964319115244     0.09690862343760409      0.6740712205167133       -24.805219058657087
0                         0.09790768141118764      -2.166983234512069E-4    -25.67607254414558
0.0783805324949231        0.0469999999999962       2.4780353807042075       -0.1329995760070832
0.08000000000000002       0.047999999999996226     2.513128862041615        2.2478541439167424E-4
0.001618896431911526      0.09890673938477121      0.7277851796681413       -26.533355158165346
0                         0.09990579735835475      -2.4310281060024863E-4   -27.47425127233286
0.0783805324949231        0.04899999999999625      2.6485274973179194       -0.14010675154774957
0.08000000000000002       0.04999999999999627      2.684770995435805        2.3693006853993856E-4
0.0016188964319115262     0.10090485533193831      0.7867088071895125       -28.400257947613095
0                         0.10190391330552186      -2.73455333418345E-4     -29.418085526548925
0.0783805324949231        0.05099999999999629      2.828182477530038        -0.14767496400722177
0.08000000000000002       0.05199999999999632      2.86568403616503         2.4986336598094755E-4
0.0016188964319115262     0.10290297127910542      0.8514845545946912       -30.41954215059643
0                         0.10390202925268896      -3.084497957577999E-4    -31.52205190142259
0.0783805324949231        0.052999999999996335     3.0175891704292055       -0.1557249509283162
0.08000000000000002       0.05399999999999636      3.056458049309166        2.636221259318579E-4
0.0016188964319115262     0.10490108722627252      0.9228520055117807       -32.60652154075979
0                         0.10590014519985608      -3.489193346884652E-4    -33.80245809383257
0.0783805324949231        0.05499999999999639      3.217362850479271        -0.16427823246181306
0.08000000000000002       0.055999999999996414     3.2577094401061886       2.782447027385911E-4
0.0016188964319115264     0.10689920317343964      1.0016651232024856       -34.97846865077798
0                         0.10789826114702318      -3.9586788763775377E-4   -36.277726351744526
0.0783805324949231        0.056999999999996435     3.4281461647210114       -0.17335705297888482
0.08000000000000002       0.05799999999999646      3.470081837750809        2.9377091611445155E-4
0.0016188964319115264     0.10889731912060674      1.0889129952226806       -37.55492106728624
0                         0.1098963770941903       -4.505098096956317E-4    -38.968728383960375
0.0783805324949231        0.05899999999999648      3.650609997805652        -0.18298430642142524
0.08000000000000002       0.0599999999999965       3.694246887280261        3.1024195735189036E-4
0.0016188964319115262     0.11089543506777387      1.1857448769438765       -40.358043856055815
0                         0.1118944930413574       -5.143198121307554E-4    -41.899182407526155
0.0783805324949231        0.06099999999999653      3.885454232945594        -0.19318344263735457
0.08000000000000002       0.06199999999999655      3.9309049261964426       3.2770026693240695E-4
0.0016188964319115262     0.11289355101494097      1.2935005422065917       -43.41305987353835
0                         0.1138926089885245       -5.890962467560712E-4    -45.096125517239784
0.0783805324949231        0.06299999999999657      4.133408383212665        -0.20397835158200164
0.08000000000000002       0.0639999999999966       4.18078551864752         3.4618937866263505E-4
0.0016188964319115262     0.11489166696210806      1.413747215334458        -46.74876250894895
0                         0.11589072493569162      -6.770416941321855E-4    -48.59047773178406
0.0783805324949231        0.06499999999999662      4.395232063478959        -0.2153932218629863
0.08000000000000002       0.06599999999999664      4.444647815671709        3.657537245371027E-4
0.0016188964319115262     0.11688978290927517      1.548324703124128        -50.398128933023905
0                         0.11788884088285873      -7.808661869717071E-4    -52.41771809928662
0.0783805324949231        0.06699999999999666      4.671715268629651        -0.2274523696604883
0.08000000000000002       0.06799999999999669      4.723280705138894        3.864383941360276E-4
0.0016188964319115262     0.11888789885644226      1.6994007937462356       -54.39905642710513
0                         0.11988695683002584      -9.039201224633567E-4    -56.61869839096778
0.0783805324949231        0.06899999999999672      4.963678418430312        -0.2401800335674061
0.08000000000000002       0.06999999999999673      5.017502709562293        4.082888408697786E-4
0.001618896431911526      0.12088601480360939      1.8695395766989218       -58.79525012455813
0                         0.12188507277719295      -0.0010503664801338648   -61.24062652208473
0.0783805324949231        0.07099999999999675      5.271972123546341        -0.2536001303635694
0.08000000000000002       0.07199999999999677      5.328161583839851        4.3135052714641614E-4
0.00390538615178433       0.19955394498480167      50782.16576266537        -361082.11775056197
0.004056000897158314      0.1998                   627.7380042260824        -409984.35573311575
0.003758656138527496      0.1998                   316.5393472670888        -344865.2246890995
0.001618896431911526      0.1228841307507765       2.0617861118117653       -63.63729791060581
0                         0.12388318872436005      -0.001225405293894255    -66.33826038064558
0.0783805324949231        0.0729999999999968       5.59747662063977         -0.267735966165256
0.08000000000000002       0.07399999999999683      5.65613355817063         4.556684989524366E-4
0.004188982002350366      0.19957600660964936      77136.5527384171         -431599.76606879587
0.004326068726696758      0.19980000000000003      1533.4795018465568       -511512.56341416476
0.0035932174437179392     0.19952984914759644      35687.764548522035       -311862.4454326855
0.003431279470899422      0.1998                   180.65307920984924       -299650.6794955959
0.0016188964319115262     0.12488224669794362      2.2797719016095734       -68.98397782964315
0                         0.12588130467152717      -0.0014355682228976245   -71.97536384811497
0.0783805324949231        0.07499999999999685      5.941100817151555        -0.2826098967772926
0.08000000000000002       0.07599999999999688      6.0023221638268          4.8128687941121723E-4
0.004445969548099071      0.19959593262482683      129999.55570382571       -538499.3364129554
0.004571361877221511      0.1998                   5576.700450285028        -694158.3897210221
0.0024619534699362668     0.19943987992278978      15036.798797858684       -228724.11124476892
0.002673991147881986      0.1998                   60.979073776242636       -242092.1789876904
0.0022370630116773016     0.1998                   26.91600459239756        -223477.60152290444
0.0028718309719362838     0.19947470911734164      19619.936619824188       -249050.7157481965
0.003070837674990657      0.1998                   110.49628177642201       -266723.93946163106
0.0032494503274171295     0.19950353157227133      26135.431963167775       -275948.3834288671
0.0016188964319115257     0.12688036264511074      2.5278469917922926       -74.90385586373691
0                         0.12787942061869428      -0.001689107649175033    -78.22649132310805
0.0783805324949231        0.07699999999999689      6.303780878270288        -0.29824293042575106
0.08000000000000002       0.07799999999999692      6.367656571102995        5.082482694562055E-4
0.004676890340638235      0.19961330853339643      259238.1265722042        -704827.735828549
0.004794153052864059      0.1998                   36452.301193396095       -1141283.1477679664
0.0020108916151628372     0.19940145980176588      11378.402516569826       -213189.21119087285
0.001756005005246881      0.1998                   6.422185296503206        -209565.38737757286
0.0016188964319115264     0.12887847859227783      2.8112463675856247       -81.47724836193079