% Model:              large_zylinder_1000V.mph
% Version:            COMSOL 5.4.0.295
% Date:               Jan 19 2021, 18:07
% Dimension:          2
% Nodes:              4917
% Expressions:        2
% Description:        Electric field, r component, Electric field, z component
% Length unit:        m
% r                       z                        es.Er (V/m)              es.Ez (V/m)
0.005133728440346098      0.39987257153876027      965841.4876709193        2061560.767185139
0.005209381829252272      0.4                      7826.039986683899        1694767.4886778414
0.005                     0.4                      -849027.8193924514       2670821.965504838
0.005                     0.39980000000000004      4066377.2660497874       441634.83240098937
0.005306132028314049      0.3998159182849484       651087.1681098001        916009.0559097006
0.005428932737134471      0.4                      5989.604024061817        842278.9694325341
0.005536537868041297      0.3998172619564498       243272.04544707105       558316.1484624471
0.005648548472191957      0.4                      2267.60013971759         503293.4873023162
0.00575854814735583       0.3998101499708065       128679.53776360308       375348.8288929599
0.005868164421584121      0.4                      881.0861665270759        340238.50244127994
0.006087780370976285      0.4                      372.72790776457106       248011.21402112322
0.005978264408683887      0.39980679627768373      76402.7876040839         272343.47529770294
0.00479415305286408       0.39980000000000004      34202.112868572585       -1138096.2831327515
0.004889882389786808      0.39962487583467815      760574.2595106447        -839656.0385844321
0.004678576508847013      0.3996116503108616       260631.72866563275       -704964.7013122499
0.00457136187722154       0.39980000000000004      5618.713832724684        -694041.2012988573
0.00444622803368294       0.3995944372106543       130706.80064859723       -537937.587136547
0.004326068726696799      0.39980000000000004      1563.5106787175562       -511433.4426535976
0.006197158982946551      0.3998050739400337       49405.0279189439         207632.30914062358
0.0063073963203684495     0.4                      169.17180873777826       190047.04582307336
0.004189069260053227      0.3995745806498326       77535.36839411531        -431301.31048969086
0.004056000897158361      0.39980000000000004      638.026155339554         -409927.2943688839
0.006416146017736001      0.39980248545529684      34246.96003173835        163843.937972836
0.006527012269760614      0.4                      97.1732530585723         150863.36369212903
0.0039055327508450647     0.3995522090890965       51099.77168392708        -360897.5351355556
0.0037586561385275514     0.39980000000000004      322.27805655294407       -344825.8096990842
0.0035932574308388575     0.39952773610200004      35939.80281757447        -311712.7536670765
0.003431279470899483      0.39980000000000004      185.397977363163         -299621.29540592106
0.006749374965723763      0.4                      91.86038940211405        122624.5571832572
0.006638673111472464      0.39979645985292206      25217.58509822549        132252.3185208358
0.0032492890628515025     0.3995011559324985       26323.399082986016       -275826.6166589617
0.003070837674990719      0.39980000000000004      110.9194655820417        -266705.1484667698
0.006992028494439898      0.4                      67.810763666758          100117.9459686743
0.006873045074952116      0.39978540812831037      19435.672618276512       107931.94773285584
0.002873031325713067      0.3994710682583325       19838.688318198972       -249004.21947372085
0.002673991147882048      0.39980000000000004      64.89437869284302        -242067.93592656357
0.0024606733767076525     0.3994401232032585       14999.74944811357        -228646.94853715444
0.0022370630116773614     0.39980000000000004      31.463826484202098       -223446.75824140524
0.007128394184553869      0.39976972279643636      15378.728212014212       88363.80036033661
0.007260173995503711      0.4                      47.93287777197903        81827.14492550852
0.0020085350353145795     0.39940461606293876      11265.868824539279       -213144.04675015158
0.0017560050052469326     0.39980000000000004      9.7010313924402          -209532.7324018854
0.007410155540262133      0.39975041212458384      12339.999774886966       72359.16653839513
0.007556455412870942      0.4                      35.16588702028566        66898.84612657291
0.0015062722249323264     0.39936196518714334      8113.684444536979        -201466.17495010016
0.0012263600029635239     0.39980000000000004      1.0046249218285084       -199599.8070672713
9.463106750585679E-4      0.3993250634976875       4993.333207406317        -193393.8516054994
6.432206760566511E-4      0.3998                   -38.14436911719773       -193395.6991289263
4.329253434965984E-4      0.3993608876491904       2013.336707973131        -190150.3703540009
0                         0.39980000000000004      -586.1234674366424       -191288.08290394675
0                         0.39911519173849863      -149.66141024352206      -186392.69310168293
0.007721735405469439      0.3997278754160376       9985.666738260597        59213.9004707979
0.007883833400619895      0.4                      26.732711956559466       54674.163099469406
5.762733636889285E-4      0.3987593386664012       5865.305760485694        -181636.2723108367
0                         0.39840348559430366      2.81078719017872         -172204.68580357582
0.008065992944914096      0.3997026741070464       8111.937160454894        48413.99147819759
0.008245600136029624      0.4                      20.219523867715193       44640.2868852327
0                         0.3976593114977333       38.86915844905889        -151106.55708136456
6.371353194897838E-4      0.3979628667641778       9424.346763804768        -161004.91958026387
0.008445467224905159      0.39967690913711024      6566.969988888953        39556.51839310142
0.008645334313780709      0.4                      14.923651290083194       36395.524723752875
0                         0.39688776675066745      66.41101245789712        -126928.0012413034
6.537653532772582E-4      0.39720618724570383      10438.639074904573       -136923.1474341228
0.008866178832867047      0.39964299439162054      5400.602483548834        32222.779386272
0.009087023351953398      0.4                      12.175223893064164       29620.607375974174
6.393730278510831E-4      0.3964364381394081       9529.789253402161        -112708.36648272585
0                         0.3960927551707816       20.57250398156854        -103256.90656273333
0.00933105132918193       0.3996055172657688       4438.299109336102        26194.47062956111
0.009575079306410456      0.4                      9.965375089851642        24053.510087022896
6.145480294401626E-4      0.39570468406662096      7956.391214062319        -92228.89583459422
0                         0.39535102741493966      0.5872052135819104       -84048.42744053311
0.009844734419864156      0.3995640994568715       3643.615007810125        21242.00460621211
0.01011438953331788       0.4                      8.169159857597412        19483.45700642217
0                         0.3946531129440536       7.0411439307790715       -68919.12300040713
6.206669295231155E-4      0.3949924960571716       6708.5422014984315       -75316.71903898915
0.010412349135003676      0.39951834111739676      2986.2177134336903       17179.270546977405
0.010710308736689466      0.4                      6.703399312059116        15737.974388280025
0                         0.3939547908992793       20.35930904643222        -56488.21410629072
6.350962546463249E-4      0.3942892946131937       5608.2979842811665       -61554.8449185334
0.011039544700430195      0.3994677791595969       2442.242158569078        13852.748925479837
0.01136878066417093       0.4                      5.505248962501731        12674.579548295822
0                         0.39320991869761984      26.28006805125915        -45827.12840916328
6.65083424071169E-4       0.39355995761381246      4698.638710726681        -50011.99146120852
0.011732576656099373      0.3994119093786835       1992.3431464766297       11135.545092449154
0.012096372648027825      0.4                      4.516003369577338        10175.240135504135
0                         0.3923870961263189       23.202789675066015       -36606.08011949977
7.125446127669806E-4      0.3927735972717537       3930.6649716428947       -40170.08499603882
0.01249835691389536       0.3993501746222994       1620.7433705807634       8921.95723658784
0.012900341179762891      0.4                      3.7033587436882827       8141.855665806596
0                         0.3914780732472132       19.076007440676523       -28840.428517842665
7.764427084201599E-4      0.39190820265963927      3259.8901087104678       -31819.119208702625
0.013344529687656828      0.3992819547366613       1314.3311932655974       7124.260766060554
0.013788718195550768      0.4                      3.028596204950326        6492.672911293016
8.534662959584653E-4      0.39095032756755677      2663.059077926926        -24870.45616506193
0                         0.3904737275779086       15.5555650724588         -22450.19356125127
0.01427954284074814       0.39920657188771963      1062.1914740364432       5668.991984471778
0.01477036748594553       0.4                      2.4725030732073447       5159.574703183699
9.414057400274884E-4      0.3898895977771813       2137.918462614912        -19215.5027286275
0                         0.38936427592095546      11.897801167719686       -17297.229031270934
0.015312716035237942      0.3991232800736681       855.3584931478478        4495.1223965195795
0.015855064584530364      0.4                      2.014219901493917        4085.8127374542923
0.0010342125454608293     0.3887207031951718       1682.6549070625563       -14722.146772598038
0                         0.3881385272219459       8.591021404317871        -13211.742907670678
0.016454447459838387      0.3990308842908515       686.4817151210558        3551.5862527208246
0.017053627752566525      0.4                      1.6392420221711452       3224.1199812273167
0.0011357843754532704     0.38743174047648         1306.3159719633138       -11199.031065902507
0                         0.3867843044926882       6.336423091552812        -10019.100325152916
0.017716043256107733      0.3989287511887539       548.8578896077573        2796.156704310432
0.018378010970228245      0.4                      1.3307611949558569       2535.2138038615976
0.0012533691192352391     0.38600480753279537      1006.4498165816409       -8459.404268758375
0                         0.38528829017255223      4.842194682655342        -7553.92892487414
0.01911023222910719       0.39881534073128394      437.3231013294276        2193.568329736412
0.019841422733274397      0.4                      1.0802974842322552       1986.5486694380613
0.0013855433127603139     0.38442538735492016      768.9627187201935        -6354.208311676953
0                         0.3836356146146752       3.7207743328096208       -5668.750167036559
0.020650824915852524      0.39869005121960643      347.0765026262709        1714.8695532836573
0.021458458266755253      0.4                      0.8705104329994146       1551.2535170316949
0.0015330954812116208     0.3826828939375057       583.8974234630153        -4755.655680685994
0                         0.381809588873519        2.7834508142362515       -4238.142608454808
0.02235278213409397       0.398551273561139        274.51016092776194       1336.1084223696278
0.023245245072436402      0.4                      0.6592212445755933       1207.2947737913307
0.0016975943491821484     0.380757255548708        440.8309609546665        -3547.5586304208286
0                         0.37979230830100763      2.167292031765404        -3159.3989336425716
0.024225007943503324      0.39838400344402214      218.36805353721593       1038.1639342838812
0.025219603637632287      0.4000000000000001       0.5606145295158912       936.3805418203633
0.0018822729489152363     0.3786253633207637       331.45169247862833       -2638.1931463991496
0                         0.3775637443789032       1.7475416578157212       -2350.0195577499308
0.026318063989513883      0.39821093695393783      171.11720351677513       801.8885292794766
0.027401224743330857      0.4                      0.485310903375689        723.9268062778823
0.002086753534872145      0.37626667668129293      248.16407197582626       -1957.6800814153141
0                         0.37510173652053813      1.3946665213306915       -1745.0681523197518
0.028616645670806035      0.3980223093181283       133.727018943272         618.485658369117
0.029811866895258         0.4                      0.3826821918301375       557.8380585283594
0                         0.3723817908216548       1.0296020160385524       -1294.2528972316456
0.0023066403988561343     0.3736582636941635       184.66087384068547       -1450.686807003449
0.03115280463612475       0.39781156576184573      104.28471798202189       475.62157636883194
0.03247557236116313       0.4                      0.29736070761141264      428.4712504825509
0.002529237045331937      0.37078197061221485      136.12894515589323       -1075.0269356766814
0                         0.36937686465302844      0.7476511446757286       -959.0626740376562
0.03395316391692995       0.3975844931038589       80.87829221160055        364.69348054733877
0.03541890761742175       0.4                      0.2342381302982147       328.03576677150596
0.0027573428754485234     0.3675995509338808       99.55079084038812        -796.1352770398962
0                         0.36605706489171785      0.29489214567138333      -710.408725493854
0.03705850824237273       0.39732527649634636      62.63891085056039        278.42128877971834
0.03867125204680172       0.4                      0.18035747690788304      250.3295566953299
0.0029377933540572164     0.3641746535874055       71.83179404169584        -594.471395937651
0                         0.36246195117732694      -0.032300010124496716    -529.1682656867105
0.04045811526191409       0.3970838887174605       47.7593977040612         212.5452623568889
0.042265015129930604      0.39999999999999997      0.10001734130681167      190.36341970936044
0.04415538692207588       0.39689816591163324      35.60413679372294        162.5130177559623
0.04614714848679413       0.4                      0.033458992555168716     145.11683170300648
0.0030979427069830487     0.36054167351988975      51.966243962727845       -448.6346267155805
0                         0.3586538795937519       -0.17723588136861204     -398.5770884157823
0.04806944441923255       0.39681721385232627      25.929893989958742       125.2903757784776
0.05013965476648207       0.4                      0.012141362877018795     112.19865219751445
0.052078166304923186      0.3967946389699044       18.949078642010264       97.93369975206748
0.05413267202815797       0.4                      0.011160668192247819     88.33746262058439
0.00319875095871397       0.3566779106306601       37.201744851957564       -341.72419168140186
0                         0.3547019416675684       -0.1921667777140783      -304.8302481582218
0.056090641612737434      0.3967778746557203       14.16566100774529        77.78283585022328
0.05812568928983388       0.4                      0.009661100740286614     70.60183520061373
0.060100091874632305      0.3967669595251577       10.796936839762855       62.6258778935371
0.06211870655150978       0.4                      0.007958083629090168     57.13567072218476
0.0032166706278257164     0.35271452187638347      26.55970512479871        -264.8628172725106
0                         0.3507165666800075       -0.13041389886135826     -237.90077062108412
0.06410627533815798       0.39676376656037177      8.365071653652597        50.998072716257745
0.06611172381318568       0.4                      0.006242294330418275     46.71817519649252
0.0681077301984178        0.3967631972066042       6.5855130331823295       41.921188948188835
0.07010474107486159       0.4                      0.004618807626374234     38.52394806814475
0.0032265927151846605     0.34872979696182244      19.411199500458167       -209.20293552263334
0                         0.34673115114955283      -0.08284235440726206     -189.25624820155372
0.07210116387383664       0.3967631842047407       5.263740223597348        34.72777322587308
0.07409775833653748       0.4                      0.0033135226987419477    31.980538942015787
0.07609425422180383       0.3967631819421676       4.264985341351946        28.933515681285442
0.07809077559821337       0.4                      0.002418856920950154     26.683076531126915
0.0032305168296023795     0.34474169898257306      14.489717890453429       -168.1017397402888
0                         0.34274573561909816      -0.053484808838523655    -153.05277427830447
0.08008728422905131       0.3967631815199181       3.499871489891237        24.204879261242024
0.08208379285988926       0.4                      0.001786395044771514     22.33903319698418
0.08407957922506659       0.39676274485137486      2.9071535040170566       20.299070705200446
0.08607681012156515       0.4                      0.0013258215130846462    18.733468719935747
0.003232709795630373      0.340754521754355        11.030011495345738       -137.12538752510022
0                         0.3387603200886435       -0.035671297969997795    -125.55314734737642
0.08807112234744312       0.39676189684591484      2.4431661228050836       17.035020990435015
0.09006982738324104       0.4                      9.848950508862277E-4     15.705910081354427
0.0920616191091605        0.396760642110032        2.076810456676218        14.276422058714047
0.09406284464491693       0.4                      7.223770384977347E-4     13.13473027124527
0.0032337964438420522     0.33676823559964014      8.543011877272335        -113.3372478735293
0                         0.33477490455818887      -0.024466999886840313    -104.28820859143484
0.09604996363179143       0.39675870851959755      1.7857362066526115       11.91942661017412
0.09805586190659282       0.4                      4.91848081554769E-4      10.926440761897032
0.10003188520950186       0.39675463517218845      1.554226463016296        9.884772278838755
0.10204887916826871       0.4                      2.983243763923388E-4     9.008108067694879
0.0032342512148163948     0.3327824385385888       6.719501248850349        -94.76358155174141
0                         0.3307894890277342       -0.017179276594068444    -87.58284164533775
0.10401157547127442       0.39674624509909323      1.370314196539245        8.106214343586396
0.1060418964299446        0.4                      1.515404622827338E-4     7.3221598243035055
0.0032344250403924944     0.32879686813490083      5.3587054823292135       -80.04658190173888
0                         0.3268040734972795       -0.012307434972626652    -74.27367929898271
0.10798794018331799       0.39673277951647384      1.224708160216128        6.533481684175754
0.1100349136916205        0.4                      1.0248760399485228E-4    5.822323738898416
0.11197976658222925       0.3967270243791441       1.105311045524531        5.119678714902753
0.11402793095329639       0.4                      -3.172226630833149E-5    4.47133007402365
0.0032344859491745537     0.32481139482048393      4.326936219544535        -68.23145890330444
0                         0.3228186579668249       -0.008974228045929067    -63.53585815131
0.11590105088636214       0.39672925362138883      1.009864957558418        3.8592288421585756
0.11802094821497228       0.4                      -3.7065097058556E-4      3.237885635212239
0.11973078170681724       0.3967528937411228       0.9302248118034462       2.725267076265125
0.12201396547664817       0.4                      -4.098225234648182E-4    2.095525073751393
0.003234505776162013      0.3208259593611344       3.533302606311878        -58.6334802770351
0                         0.31883324243637023      -0.006647511282343051    -54.77361857306954
0.12378366183098306       0.39650291990454484      0.940194762311081        1.603245705905291
0.12600698273832406       0.4                      -4.097899350018715E-4    1.022637743100559
0.12736091811586223       0.3972873897345752       0.6980218040910419       0.6691296614631248
0.13                      0.4                      -0.0017641776306883206   -0.0017163575928669794
0.0032345118606154446     0.31684053740766255      2.9148194412653177       -50.75294183923597
0                         0.31484782690591556      -0.004994326944067022    -47.54947267744692
0.13                      0.3959999999999999       1.0048370755075797       -0.0013494185504979346
0.0032345136414784555     0.31285511992223         2.4270656731086624       -44.21942543818502
0                         0.3108624113754609       -0.0038008884094343407   -41.53730768031479
0.12700240500547855       0.3939684502110314       1.5534665272738406       0.7502419054447239
0.13                      0.3919999999999998       1.9952890847581404       -0.0016517430680659622
0.0032345141427675586     0.3088697038249116       2.0382017039152203       -38.75445166775982
0                         0.3068769958450063       -0.0029268459844994745   -36.49070471102664
0.12690605753632353       0.3900036508306988       2.5505774148145015       0.7514769622823453
0.13                      0.3879999999999997       2.9549646183804312       -0.0017026324687816619
0.0032345142792599107     0.3048842881367773       1.7250641756137906       -34.145963642425954
0                         0.3028915803145516       -0.0022782525284128496   -32.22114154552105
0.12682611304608696       0.3860097435002754       3.5184550998429778       0.7356349728485458
0.13                      0.38399999999999956      3.870531184995169        -0.00165514943237192
0.003234514315357957      0.30089887256401177      1.4705702857677114       -30.230585085133487
0                         0.29890616478409693      -0.0017911193192882517   -28.58274367868076
0.12680425931000497       0.38201107340050494      4.434053122290745        0.6949858069080052
0.13                      0.37999999999999945      4.729625989331802        -0.0015415801030493153
0.0032345143246595453     0.2969134570225553       1.2619627630278956       -26.88108677534616
0                         0.2949207492536423       -0.001421169277136869    -25.46145264559603
0.1267911036633437        0.37800693121565687      5.286514013392202        0.6432077681614571
0.13                      0.37599999999999933      5.521617148387132        -0.0014027840716286377
0.0032345143270005017     0.2929280414893182       1.089604098715559        -23.997403555396488
0                         0.29093533372318764      -0.0011373178740351857   -22.767223622888697
0.1267776515704916        0.3740061082959058       6.064312757040812        0.5840981366267312
0.13                      0.3719999999999992       6.237992172754278        -0.0012424653863870223
0.003234514327577109      0.28894262595817694      0.9461357169793985       -21.500110244245544
0                         0.28694991819273297      -9.174486757027959E-4    -20.42833224063016
0.1267701582306131        0.3700043803288538       6.760190978354193        0.5182635759776129
0.13                      0.3679999999999991       6.872391595003664        -0.0010662984238865765
0.003234514327716356      0.28495721042755656      0.8258834780480152       -19.325625197742113
0                         0.2829645026622783       -7.456298368992975E-4    -18.387170704309597
0.12676660520326669       0.3660030822101527       7.368534045162183        0.4482030480452064
0.13                      0.363999999999999        7.42069147055183         -8.842960159283209E-4
0.0032345143277493758     0.28097179489706275      0.7244319263688865       -17.42264397626712
0                         0.2789790871318237       -6.102517210611799E-4    -16.597109242188356
0.12676507400651385       0.3620016969078382       7.8864320371979515       0.37617312107206
0.13                      0.3599999999999989       7.880931865490539        -7.039587924504431E-4
0.0032345143277570754     0.27698637936659903      0.6383157326521172       -15.749459720141383
0                         0.274993671601369        -5.027630373414619E-4    -15.020128822828042
0.12676318294631062       0.35800076284103216      8.313108517293864        0.30420851580455216
0.13                      0.35599999999999876      8.253190487846242        -5.289513505391715E-4
0.003234514327758842      0.2730009638361423       0.5647935761821993       -14.271930057887635
0                         0.27100825607091433      -4.1680173251279484E-4   -13.62501854194008
0.12676168125065876       0.35400019934817145      8.64965690954497         0.23371869417930421
0.13                      0.35199999999999865      8.539367363817304        -3.6264446230097985E-4
0.003234514327759242      0.26901554830568714      0.5016807169202716       -12.961920484617067
0                         0.2670228405404597       -3.475899261028796E-4    -12.385990759720395
0.12676109807736838       0.35000000607534426      8.89892538051704         0.16598971074905458
0.13                      0.34799999999999853      8.742924999124424        -2.0831271683086072E-4
0.003234514327759342      0.2650301327752324       0.4472238186792197       -11.796102399064756
0                         0.26303742501000504      -2.9150777901065794E-4   -11.281608326278644
0.12676106971880718       0.346000000640506        9.065312352840978        0.10214050485757624
0.13                      0.3439999999999984       8.86860495497534         -6.764877950082848E-5
0.0032345143277593517     0.26104471724477774      0.40000650912163377      -10.755017604136667
0                         0.25905200947955037      -2.4579009476610736E-4   -10.29394709732866
0.12676106498984618       0.34199999999999836      9.15438142577729         0.043016021903932465
0.13                      0.3399999999999983       8.922137852543813        5.86345948786852E-5
0.0032345143277593513     0.25705930171432306      0.35887752096053305      -9.822344766743027
0                         0.2550665939490957       -2.0830810417749035E-4   -9.407937366073241
0.12676106498984616       0.33799999999999825      9.172500362403635        -0.010810514484388042
0.13                      0.3359999999999982       8.909957997248343        1.6991405084680147E-4
0.0032345143277593548     0.2530738861838684       0.32289557671505875      -8.984320209823865
0                         0.2510811784186411       -1.77410988240941E-4     -8.610842442345179
0.12676106498984616       0.33399999999999813      9.12660870002185         -0.05898610468693022
0.13                      0.3319999999999981       8.83893509710977         2.6608805830363735E-4
0.003234514327759355      0.2490884706534137       0.29128679702589605      -8.229277555160905
0                         0.2470957628881864       -1.5180974282458237E-4   -7.891843158942469
0.12676106498984616       0.329999999999998        9.023954960416853        -0.1013545702944425
0.13                      0.32799999999999796      8.71613472937611         3.47491143508627E-4
0.003234514327759355      0.24510305512295905      0.2634115533158064       -7.547279560304328
0                         0.24311034735773174      -1.304913373587624E-4    -7.241704776147941
0.12676106498984616       0.3259999999999979       8.871866607660188        -0.13792882149011731
0.13                      0.32399999999999785      8.548612087795988        4.1479878814302634E-4
0.0032345143277593535     0.2411176395925044       0.23873849811537795      -6.9298219629489
0                         0.2391249318272771       -1.1265474579621089E-4   -6.652508412914557
0.12676106498984616       0.3219999999999978       8.677556327854145        -0.1688612077206361
0.13                      0.31999999999999773      8.343241600206325        4.689349898310269E-4
0.0032345143277593535     0.23713222406204973      0.21682409049534712      -6.369593930393289
0                         0.23513951629682245      -9.766291038223092E-5    -6.117433329880389
0.12676106498984616       0.3179999999999976       8.44796619235004         -0.1944138169807649
0.13                      0.3159999999999976       8.106582557904362        5.109894481005739E-4
0.003234514327759355      0.23314680853159508      0.19729635774603574      -5.860283278296376
0                         0.23115410076636778      -8.500640168307427E-5    -5.630579527355749
0.12676106498984616       0.31399999999999756      8.189648593133215        -0.21493027468964362
0.13                      0.3119999999999975       7.8447790093632035       5.421465778209603E-4
0.003234514327759355      0.22916139300114047      0.17984194434429548      -5.396417302200615
0                         0.22716868523591313      -7.427573682387371E-5    -5.1868224855142415
0.12676106498984616       0.30999999999999744      7.908681225546499        -0.23081012176204366
0.13                      0.3079999999999974       7.563490843498857        5.636271922708028E-4
0.003234514327759355      0.22517597747068582      0.16419572774001168      -4.973232092754025