% Model:              large_zylinder_1000V.mph
% Version:            COMSOL 5.4.0.295
% Date:               Jan 19 2021, 17:59
% Dimension:          2
% Nodes:              6398
% Expressions:        2
% Description:        Electric field, r component, Electric field, z component
% Length unit:        m
% r                       z                        es.Er (V/m)              es.Ez (V/m)
0.005150191002377043      0.15983404995764047      214692.99770666982       2522779.7557131485
0.005                     0.15984359711335658      -1183949.7158587466      4004756.3269721936
0.005103287687048273      0.15972338923574397      2165603.8485682127       2455626.7580603864
0.005                     0.1597                   5315984.606846541        249952.3909844039
0.006095825997920383      0.15976741756759508      18372.074493978525       238469.54537969848
0.005937986915211327      0.15977932258044547      22425.531999891507       297200.7343022318
0.0060095042751941745     0.15963466062709694      69346.42364871624        254070.5086576743
0.006253819592739456      0.15975518629218707      15467.590330287247       196337.15158205596
0.006165953699522796      0.15962213364377775      52635.85388114604        208676.83932374255
0.004682057677469474      0.15970000000000004      9329.224555179166        -908609.2065573839
0.004752235852697822      0.15955630799704423      347437.0926307652        -898490.1369761146
0.004848971104036538      0.15970000000000004      60585.13711041678        -1528384.258864042
0.004908104505650777      0.1595613638639984       945373.1685093375        -1025657.5118833928
0.005237239662499361      0.1597131118835852       821356.4593509723        1294896.9105132488
0.005307656514811755      0.15982373570762504      95454.1806354421         1256790.047061165
0.005381435906764875      0.15968863253081123      412774.82694318244       810654.5137815042
0.0054651416213352        0.15981310811551414      55623.10771932745        761285.8704763312
0.0056226732920785834     0.15980216503986933      38052.94949663795        520388.2069772838
0.005535810225166242      0.1596711286273026       230531.66484268729       559125.3263273987
0.005780278750646308      0.15979090410294158      28417.890652621052       383578.47240209655
0.005694027857683509      0.15965816132066687      142546.00979005868       411333.94444776746
0.005852252402060846      0.15964646547527592      96154.21096461864        317578.98677440936
0.0064120021016552484     0.15974262491947683      13308.191663997639       164867.78274035483
0.006322880460106139      0.15960744500361052      41717.73364747558        174623.54581951656
0.004583260296138831      0.15954820031882752      173487.9558378278        -691829.7608673951
0.004497589057802335      0.15970000000000004      2243.4412793715796       -657653.4787073325
0.006575211970110639      0.15972933329426575      11596.195666469683       139958.66215143312
0.006483691119564414      0.1595885721925992       34323.43729489216        147760.04904881163
0.0043928032839842        0.1595342835549069       102953.79636640342       -549539.507130547
0.0042937188698747904     0.15970000000000004      831.7315275695486        -519123.0139980402
0.00675510033706361       0.1597142936959          10096.83833827472        118680.48899858973
0.006654682838411602      0.15956443363234085      28950.95451797826        125481.15361721783
0.004179633898623766      0.15951763554876586      67863.78355945607        -453737.5921213321
0.004068406545205639      0.15970000000000004      398.9032422150485        -430343.0368079436
0.0068419602556944415     0.1595358464149684       24641.491294660646       106463.53095705855
0.0069538609960565914     0.15969720081186992      8793.865204330832        100460.99099140306
0.003943460017763858      0.15949775796724103      48201.50946635613        -386366.1880107755
0.003819396897626241      0.15970000000000004      229.7083178704294        -368518.05427762034
0.007048831299522904      0.1595031128556123       21038.320004973968       90121.4950351967
0.007173449504804416      0.1596777360509322       7661.065280786635        84866.26578994823
0.003680833147247981      0.15947491181354173      35879.5042702007         -336670.8599619419
0.003544197550770025      0.15970000000000004      152.49617112676302       -323153.13775937917
0.0072773918595829        0.15946544317567343      18014.77983745001        76089.43142630119
0.007416045869727859      0.1596555224931586       6674.381590858296        71525.94433856792
0.0033905132509800453     0.15944997661013707      27506.529802931705       -299067.57120652136
0.0032400539914890676     0.15970000000000004      107.37153475126252       -288693.3012922127
0.003069735521492327      0.15942356342868055      21416.032970439177       -269961.91605654656
0.0029039219995027534     0.15970000000000004      78.02206464670599        -261947.88716721116
0.0075297449124461235     0.1594243048366173       15378.013882488312       64095.540244663425
0.007684060242855438      0.1596301150205383       5812.603531362071        60125.90737608966
0.0027150430951506073     0.1593955962826546       16762.347782444092       -247100.0713475399
0.0025324371773231867     0.15970000000000004      54.54811397334561        -240981.32963866918
0.007808553558161185      0.15937624830588595      13176.847490365666       53815.90008462787
0.007980129417912958      0.15960098953199864      5060.5586782601          50401.778601835955
0.002325299900843061      0.15936381349831835      13146.810236360141       -229135.50864877648
0.002121881275474875      0.15970000000000004      33.96176189409258        -224579.21240857188
0.008116602675255005      0.15931991326470768      11328.575660423305       45024.59301504322
0.008307175091992062      0.15956752378948957      4403.671959491266        42121.947001713415
0.0018966340106728761     0.15932614831245837      10183.796202949286       -215101.3845526021
0.0016681449759584732     0.15970000000000004      21.7349233290491         -211991.02915197518
0.008456648379387742      0.1592562603374589       9724.11212166492         37547.859224369655
0.008668432449343453      0.15952897760484017      3828.8873443728976       35086.85092225428
0.001416582170635771      0.1592862913479917       7413.589112279976        -204359.35844273612
0.0011666867614445787     0.15970000000000004      4.686209234486644        -202846.46535511353
8.961674488854855E-4      0.15923295370420673      4828.815732649901        -196831.7002423768
6.124874585203245E-4      0.15970000000000004      -29.72847207034162       -197039.883616833
4.114368568564392E-4      0.15928133224424712      1891.076075725147        -193948.0974042331
0                         0.1597                   -545.3676396972733       -195025.78109596262
2.7428088792135885E-17    0.15905608349679878      -155.51507335990513      -190513.0055029275
0.008831964215804436      0.15918422350275346      8332.496978549227        31204.379077179114
0.009067437782588108      0.15948447377984515      3325.8949645316775       29125.235982904403
5.485293768763589E-4      0.1587176240202302       5534.097150095942        -186113.34938037125
2.7196696445138855E-17    0.15838914046466296      -18.70689125576367       -177380.618105197
0.00924613631163875       0.15910254660473772      7126.168671492935        25838.546422863506
0.009508099554309438      0.1594329657186822       2885.735322003522        24088.385463419894
2.6955074063580053E-17    0.1576927113654293       7.137576020807804        -157542.55799128124
5.803708333381366E-4      0.15794458858301752      8695.3608298604          -165981.49202937953
0.00970313497964376       0.1590094418454144       6083.972635532373        21312.635412929918
0.009994720942315273      0.1593732042523498       2500.702145368211        19846.772739114356
2.6703785749152092E-17    0.1569684221115283       70.7885976289399         -134192.5702828079
6.1840189372522E-4        0.15723101725798339      10174.422798023996       -142822.4799634051
0.010207265868118473      0.15890301977221544      5184.731046788255        17508.5483532026
0.01053204239984325       0.15930369526628568      2164.0471947418823       16287.457662276714
2.6442764203231888E-17    0.15621607872788548      88.7820431337653         -110549.24451847358
6.597743512682252E-4      0.15651199352808104      10398.919646720804       -119170.20027155527
0.010763222841500174      0.1587812211631517       4409.216482782283        14323.70424479906
0.01112526543927961       0.159222651236282        1869.8853002650474       13312.048569243998
2.6171715816017486E-17    0.15543483494186425      86.09661517991724        -88854.61966927728
6.969872013284257E-4      0.15575469093910327      9591.948968184317        -96545.21325710417
0.01137615761963796       0.15864121853478552      3742.49532242089         11667.516963709508
0.011780094646574151      0.159127930404616        1613.1146519985748       10834.80836703883
2.5886242024131956E-17    0.15461201275769804      54.37674582703039        -70018.17167425959
7.1957758463532E-4        0.15494370650901612      8059.930543342726        -76273.30866801161
0.012051813540651332      0.15847952438349688      3170.9317835812185       9460.940420852075
0.012502790870151386      0.15901696159975562      1389.2611972621135       8780.993717764419
2.5592896153228784E-17    0.1537665008505683       21.076632363401586       -54797.852344321145
7.185213102506578E-4      0.15412475222819833      6314.3377323826235       -60043.16932259591
0.012796642019132158      0.1582933985521277       2679.16751333474         7636.404399593915
0.013300207743265601      0.1588866558676813       1194.3408366969068       7085.617995080527
2.531243452452813E-17     0.1529581252432032       35.39150242099519        -43535.30536757119
7.408790955857058E-4      0.15332033249821547      5064.385118508617        -47585.56861216889
0.013617626573895151      0.15808048757789614      2254.5541922062007       6135.642359809174
0.014179832769002832      0.15873329881722925      1024.8420268951904       5692.4240269148795
2.501535468508904E-17     0.152101850904517        39.374850342903905       -34369.36754731496
7.743190828958718E-4      0.15246303492798424      4022.9602800838256       -37396.04430716238
0.014522398320294151      0.15783695030656744      1889.1087332448612       4907.300473672261
0.01514982633204518       0.15855242047263005      877.6433997187769        4552.854348702122
2.4687425276602507E-17    0.1511566587369242       28.392070331343955       -26765.503178852916
8.26756153158846E-4       0.15156956997479246      3229.7907183617694       -29363.577355848236
0.015516992919802344      0.15756062053009445      1575.0293534955815       3909.4586743561813
0.01621906229665333       0.1583386368161795       750.0591655075553        3624.781034313946
2.4325578554834293E-17    0.15011370656967904      21.119614904241946       -20603.724478032233
8.941600822516681E-4      0.15058192754066532      2566.658284667141        -22755.485696565196
0.01661734714894751       0.15725629578042521      1299.156210142591        3101.058618594811
0.017397139938043774      0.15808546293629894      639.4527685068488        2873.2938731096274
0.017804636524681804      0.15690048920862298      1077.3202277578625       2456.6723429181684
0.01869439684357387       0.15778508550265258      543.9033981923093        2267.2493933904366
0.01911637503176235       0.1564889533645866       888.9900398155118        1935.1824409485464
0.020096473213815132      0.15743469354473102      463.1426559096917        1788.8802328861475
2.3926125776824622E-17    0.14896236232507332      15.99374918958832        -15704.002873593849
9.769332422929927E-4      0.14948258792963076      2016.572378684751        -17408.137036688266
0.020500527962657264      0.15605951986274622      731.151631572789         1535.2138962366887
0.021548296805091127      0.1570433053859951       397.30484817624483       1424.0194299864518
0.021938027590556672      0.15560793018182045      603.5184699816291        1228.5777446632676
0.023035619297817476      0.15661175003591823      343.409102731211         1144.7292672421888
2.3485169035173145E-17    0.14769139104994491      11.097602913429          -11870.217732331263
0.0010627973409647403     0.1482606305020605       1548.723724599505        -13179.706260471716
0.023411818908121797      0.15513572570801146      501.339551876772         993.2466813018982
0.024549449545211155      0.15614016369188558      298.9330651259288        929.2695518385699
0.024891100336378685      0.15464592115287065      420.9756405985075        813.1798665382127
0.02606549810337509       0.1556345807724413       262.3973366935682        763.1074715111985
0.0011308259720028684     0.14691365955144267      1149.7611321592042       -9920.921580016939
2.2998500027286723E-17    0.14628866313790007      5.99174111722338         -8913.208207111757
0.026373808744395228      0.1541272166877399       357.74016318305434       672.7361062121108
0.027571556889363923      0.15509866344147918      232.2451162451106        633.8897381193789
0.027849179359925962      0.15358170056047435      307.5363636707881        562.3227613005268
0.029066615088365937      0.15453275714278103      207.0369188249166        531.8918568143358
0.02931404978002555       0.1530088356554303       267.17733159021924       474.42856310797293
0.030550067494771863      0.1539370906654088       185.73636980834547       450.30348999098504
0.03076724868184849       0.15240777094459498      234.3150292565714        403.5938660675659
0.032021323103599536      0.15331190126231134      167.5695779929903        384.2658458584149
0.032208136673494016      0.15177808731877926      207.22236163313676       345.86846151140145
0.03347979402138909       0.15265743865761688      151.94651497037458       330.24721214282835
0.03363614325097394       0.15111991624727303      184.62329900626733       298.3609509831567
0.03492489664512544       0.15197396469784963      138.41043454282544       285.6377130042643
0.035050707034078615      0.15043348439317508      165.57294588932314       258.91402605825857
0.0363560528460479        0.1512617528654423       126.60327716431696       248.47987803469152
0.03645134584463013       0.1497188792539731       149.362536459305         225.89145659461317
0.03777269109932975       0.15052108767676953      116.24102312693655       217.28566437690674
0.0012169423933784363     0.14548502266190658      865.062930003644         -7502.820669335541
2.2467593132773272E-17    0.1447584281988286       -1.0632302441408683      -6679.2690041322785
0.03783755829282076       0.1489764598214564       135.44851750214096       198.04375342745985
0.03917424732794522       0.1497522640943574       107.095877150356         190.9099918463002
0.03920869901703674       0.14820659157002986      123.4139234952538        174.40334438568175
0.04056016126293281       0.14895558946397955      98.98342093141845        168.4618946895331
0.040564003731275985      0.1474096555208513       112.93402933265777       154.21241519485613
0.04192988076531285       0.14813138116174254      91.75303608267524        149.2409385697849
0.041902705622218074      0.14658575628339274      103.75352410872658       136.86818610836215
0.043282859628755256      0.14727996776424218      85.28074381333121        132.69124186199485
0.04322433644934039       0.14573528181527937      95.66270009060848        121.88982666981637
0.04461855688538478       0.14640168959797392      79.46372370176248        118.36782726600534
0.04452879771573252       0.14485858003936292      88.48999360887474        108.88856596524283
0.04593643794874865       0.1454968981599951       74.21610135658399        105.9117105064165
0.0012600099688928864     0.14394513445655768      626.3801185961889        -5688.038998401113
2.192111643979095E-17     0.1431833163710642       -2.2186720236046917      -5078.5521495438325
0.045815852972218886      0.1439560116180965       82.0977956838921         97.5508368561467
0.0472359756923472        0.14456595542847625      69.4656325282716         95.03111675999618
0.047084797625661735      0.14302784207177774      76.37722315983848        87.62214915619181
0.04851665145473882       0.14360923306894516      65.15117104419384        85.48717106181725
0.04833491851847243       0.14207437018494082      71.23766247429951        78.89317588415811
0.049777955429185096      0.14262711196670388      61.22071712319099        77.08302852026226
0.049565752827811976      0.14109599235114553      66.60166212454077        71.19030723963718
0.05101938315958506       0.14161998492384958      57.629837480858704       69.65555471779663
0.0012893854023283125     0.1423935249164259       458.55432118689714       -4395.203090508056
2.137308852879618E-17     0.1416037334617876       -2.133131648238001       -3937.1902179484728
0.05077672879363793       0.14009327029026944      62.40465827084956        64.36998290334991
0.05224044035191129       0.14058825291950908      54.34034597858513        63.068751243032345
0.05196718089513191       0.13906669137938976      58.592897565228384       58.31178252918417
0.0534406398462295        0.13953232746017566      51.31929317144329        57.20863838394189
0.053136623992418204      0.13801667760804878      55.12005536804772        52.91377416744681
0.05461950162571264       0.13845263075481526      48.538138111899706       51.97921862300759
0.001289385402328305      0.1408139420071493       334.0393734922715        -3445.0827082952255
2.0825060617801407E-17    0.140024150552511        -1.3620174587540532      -3106.6256985448213
0.05428469850037645       0.13694341510487776      51.946468666976294       48.08902038942889
0.05577655384569278       0.1373495949514775       45.97204535881955        47.29924143443012
0.001289385402328301      0.1392343590978727       248.5947538576438        -2744.6677072347197
2.0277032706806636E-17    0.1384445676432344       -0.8999679058276039      -2489.6322771455366
0.05541128051058172       0.1358473868043966       49.03696340757089        43.76450362082873
0.0569113337808472        0.13622366127605884      43.59931887219036        43.09964709930665
0.0012893854023282995     0.13765477618859612      188.41835479024303       -2218.129845735962
1.9729004795811865E-17    0.1368649847339578       -0.6090400247906776      -2022.6850350849297
0.05651603653169298       0.13472902404894754      46.36227594643342        39.87819221263758
0.05802338868261175       0.13507527908042377      41.40092708123148        39.32148380174685
0.0012893854023282986     0.13607519327931952      145.15625529075578       -1815.4560566982693
1.918097688481709E-17     0.1352854018246812       -0.4211367421309357      -1663.402395188361
0.05759841609549083       0.13358866875031336      43.89787422619679        36.37699288835523
0.05911227587831476       0.13390490553266937      39.36011809990167        35.91421418506639
0.0012893854023282986     0.1344956103700429       113.47274378513187       -1502.7519369315542
1.863294897382232E-17     0.13370581891540462      -0.29689588485174073     -1382.840275664088
0.058657943871735084      0.13242679179395359      41.6220577074657         33.21547904905811
0.06017755983068795       0.132713008762771        37.46211032704966        32.83435987670318
0.0012893854023282984     0.1329160274607663       89.87808783918051        -1256.5480222755725
1.808492106282755E-17     0.132126236006128        -0.21302456807279668     -1160.8189122965844
0.05969421435552189       0.13124406884445133      39.51563025220594        30.354780084472903
0.06121881642640017       0.13150006325579336      35.69381528312828        30.04437586386449
0.0012893854023282973     0.13133644455148968      72.03926207765244        -1060.2797314695815
1.7536893151832776E-17    0.1305466530968514       -0.15532231951419817     -983.0038058330738
0.06070669112758786       0.13004115873155556      37.56219997667129        27.76119360257052
0.062235630106279395      0.13026655294800282      34.043613117211294       27.51173519753984
0.0012893854023282951     0.12975686164221312      58.36543333625226        -902.0501759970257
1.6988865240838006E-17    0.1289670701875748       -0.11492708281578719     -839.0380167270014
0.06169477478199434       0.1288185548747922       35.74756158561095        25.405110047489966
0.06322759413345626       0.12901297114126964      32.50116126681066        25.208164221414098
0.0012893854023282934     0.12817727873293652      47.75202252662128        -773.1775850440764
1.6440837329843232E-17    0.1273874872782982       -0.08619135020823403     -721.3214004573107
0.06265786250299288       0.1275765137226106       34.059185468076464       23.260340151112644
0.06419431148104246       0.12773981957941297      31.057227183390395       23.109003893801418
0.0012893854023282917     0.12659769582365993      39.419195228810544       -667.2333078568194
1.589280941884846E-17     0.12580790436902162      -0.06544597773002654     -624.197016054534
0.063595519288399         0.12631530013252873      32.485562352091875       21.304007031579776
0.06513539562294474       0.12644760744152997      29.70354690606018        21.19268005045502
0.0012893854023282908     0.12501811291438333      32.80787818729633        -579.3929402303462
1.534478150785369E-17     0.12422832145974501      -0.05026391282808618     -543.3990686496539
0.06450760596329112       0.12503530184561593      31.015918723301265       19.516236346071178
0.06605047122119631       0.12513685026071178      28.432705937479614       19.440266741054682
0.0012893854023282912     0.12343853000510673      27.511557257512475       -505.99116852169755
1.4796753596858917E-17    0.1226487385504684       -0.03901258482483172     -475.6720332544425
0.06539406015410394       0.123737111140167        29.640613082937197       17.879864874774057
0.06693917393455227       0.12380806995246153      27.238034328290098       17.835118739661585
0.0012893854023282919     0.12185894709583012      23.23076233705562        -444.21153399574797
1.4248725685864146E-17    0.12106915564119182      -0.030576569962098194    -418.50380326191754
0.06625472326729981       0.12242142423488568      28.351304384469955       16.37991034725451
0.0678011483451981        0.12246179792557589      26.113520839907153       16.362563093406536
0.0012893854023282947     0.12027936418655351      19.742198390468882       -391.86705195390635
1.3700697774869372E-17    0.11948957273191521      -0.024182629280858237    -369.93604184588185
0.06708925538493521       0.12108888935714789      27.1408690589402         15.003072905625237
0.0686360512562645        0.12109857014480473      25.053732796848593       15.009627671259024
0.001289385402328295      0.11869978127727691      16.877492831616184       -347.2429666663711
1.3152669863874598E-17    0.1179099898226386       -0.019287433835264284    -328.427605440309
0.06789715830494858       0.11974001385002729      26.003139127053846       13.737408851511836
0.06944354930751896       0.11971893074560523      24.053752848683875       13.764817639702551
0.0012893854023282956     0.1171201983680003       14.508357458162928       -308.98261812222563
1.2604641952879823E-17    0.116330406913362        -0.015504355023722383    -292.7549704414764
0.0686780054747913        0.11837532534325512      24.932448980720228       12.57231905772587
0.0702233194356091        0.1183234315718779       23.10912270993137        12.617923464297101
0.0012893854023282956     0.1155406154587237       12.536092872480785       -276.00362576689145
1.2056614041885048E-17    0.11475082400408539      -0.012555006130999876    -261.9388017238184
0.06943141188719266       0.11699542718650603      23.923639867512065       11.498424649625546
0.07097504958957553       0.11691263111398721      22.21579214438154        11.559856443834141
0.0012893854023282956     0.11396103254944707      10.884073544179083       -247.43566075848722
1.1508586130890274E-17    0.11317124109480878      -0.010236712722947535    -235.18921821202835
0.07015703703217767       0.11560079989820284      22.971992028011062       10.507259819619057
0.07169843933686612       0.11548709338136519      21.370074724768553       10.582508035054154
0.0012893854023282947     0.11238144964017048      9.492305383437573        -222.5737725960038
1.0960558219895499E-17    0.11159165818553217      -0.008400385470698287    -211.86458554481365
0.0708545722848582        0.11419182936251672      22.07318536567323        9.591205192981096
0.07239320035473223       0.11404738671909494      20.568607554432997       9.67862802933457
0.0012893854023282932     0.11080186673089387      8.313441954186638        -200.84304630720422
1.0412530308900723E-17    0.11001207527625556      -0.006935281160698044    -191.4402013750091
0.07152384280341502       0.11276901755255968      21.223187924538284       8.74355198950866
0.07305905575771293       0.11259408492029493      19.808318729374633       8.84172257833841
0.0012893854023282908     0.10922228382161725      7.309839031414299        -181.77159882289916
9.86450239790595E-18      0.10843249236697895      -0.005758384028088888    -173.48428879955085
0.0721646696241415        0.11133313143947698      20.41840473073791        7.95844985296421
0.07369573945972115       0.11112776871998539      19.08639809644283        8.065965756358297
0.0012893854023282884     0.10764270091234064      6.451356261034448        -164.96977259461505
9.316474486911174E-18     0.10685290945770234      -0.0048069249082042615   -157.63944010745044
0.07277677453838981       0.10988498161839745      19.65568660840083        7.2306282097572625
0.07430299783429786       0.10964902212276706      18.400271487932248       7.346122598842729
0.0012893854023282862     0.10606311800306405      5.713701811383809        -150.1139768010099
8.768446575916399E-18     0.10527332654842575      -0.004033055864359388    -143.60816177370035
0.07335916560477272       0.10842502817385603      18.932662329544822       6.555004743609625
0.07488058822197718       0.108158435814702        17.747571187417936       6.6774736996672415
0.0012893854023282862     0.10448353509378744      5.077175434175577        -136.93404402167462
8.220418664921624E-18     0.10369374363914913      -0.003400021918954129    -131.14153163613346
0.07391215256166526       0.10695361222576344      18.246107457986664       5.927159350039939
0.07542827950003705       0.106656606154278        17.126128958631185       6.055762228147532
0.0012893854023282858     0.10290395218451084      4.525706482687345        -125.20326765326111
7.67239075392685E-18      0.10211416072987253      -0.002879383284304519    -120.03023655303407
0.07443580734690296       0.10547126197363758      17.59333407030394        5.3431816406044526
0.07594585258935058       0.10514413399734887      16.533947380548867       5.477142822221161
0.0012893854023282856     0.10132436927523424      4.046112156531365        -114.73049924629068
7.124362842932074E-18     0.10053457782059591      -0.002448982161392147    -110.09744459409869
0.07492996256903976       0.1039787232526906       16.972112974653456       4.799588716889276
0.0764331008417989        0.10362162347738618      15.96918400809078        4.938135746513598
0.0012893854023282856     0.09974478636595763      3.6275215003254857       -105.3538402191892
6.5763349319373E-18       0.09895499491131932      -0.002091441962420504    -101.19310111199077
0.07539419687497224       0.1024767285170563       16.3805621804872         4.2931533763897365
0.07688983025109315       0.1020896809383496       15.430136774137926       4.435586200979034
0.0012893854023282852     0.098165203456681        3.2609251101030736       -96.93557611728552
6.028307020942525E-18     0.0973754120020427       -0.0017930508358858788   -93.18933743532587
0.07582812575036642       0.10096594493216204      15.816903020601382       3.8209108118050032
0.07731585833640935       0.10054891845582838      14.915233837881765       3.966630242732115
0.0012893854023282847     0.09658562054740438      2.9388208667391686       -89.35808554918333
5.48027910994775E-18      0.0957958290927661       -0.0015429247052907158   -85.97675454145178
0.07623156338760328       0.0994468489186243       15.279340854740445       3.3801320648856623
0.07771101525471838       0.09899995021259088      14.423021055452972       3.5286631861035276
0.0012893854023282843     0.09500603763812777      2.6549335286406404       -82.52051842347441
4.9322511989529755E-18    0.09421624618348948      -0.001332375460037838    -79.46139901721388
0.07660453130224208       0.09791998923989272      14.766134160657254       2.9684057224840643
0.07807514329843401       0.09744339413442794      13.952152209224296       3.1193137595985587
0.0012893854023282838     0.09342645472885118      2.4039915049330793       -76.3360849667755
4.3842232879582E-18       0.09263666327421288      -0.0011544306776537876   -73.5622899358209
0.07694706686765537       0.09638586857641945      14.275677363743691       2.5835298863037086
0.07840809682130691       0.09587987257066515      13.501379067169628       2.736420817782778
0.0012893854023282843     0.09184687181957457      2.1815481727428314       -70.72983239177638
3.836195376963426E-18     0.09105708036493626      -0.001003466145296746    -68.20938656692624
0.07725917808249481       0.09484514565689144      13.806549271650633       2.2235381062999298